<?xml version="1.0" encoding="UTF-8"?>

<!-- generated on 05/28/19 11:22:36 by Eclipse SUMO GUI Version 1.1.0
<configuration xmlns:xsi="http://www.w3.org/2001/XMLSchema-instance" xsi:noNamespaceSchemaLocation="http://sumo.dlr.de/xsd/sumoConfiguration.xsd">

    <input>
        <net-file value="data/osm.net.xml"/>
        <route-files value="data/osm.passenger.trips.xml,data/osm.rou.xml"/>
        <additional-files value="data/osm.poly.xml"/>
    </input>

    <output>
        <tripinfo-output value="tripinfo.xml"/>
    </output>

    <processing>
        <ignore-route-errors value="true"/>
    </processing>

    <routing>
        <device.rerouting.adaptation-steps value="180"/>
    </routing>

    <report>
        <verbose value="true"/>
        <duration-log.statistics value="true"/>
        <no-step-log value="true"/>
    </report>

    <traci_server>
        <remote-port value="49471"/>
    </traci_server>

    <gui_only>
        <gui-settings-file value="data/osm.view.xml"/>
    </gui_only>

</configuration>
-->

<tripinfos xmlns:xsi="http://www.w3.org/2001/XMLSchema-instance" xsi:noNamespaceSchemaLocation="http://sumo.dlr.de/xsd/tripinfo_file.xsd">
    <tripinfo id="veh1" depart="3.00" departLane="24252105#0_0" departPos="5.10" departSpeed="0.00" departDelay="-0.71" arrival="81.00" arrivalLane="24252105#2_0" arrivalPos="320.39" arrivalSpeed="9.25" duration="78.00" routeLength="545.62" waitingTime="14.00" waitingCount="1" stopTime="0.00" timeLoss="25.39" rerouteNo="1" devices="tripinfo_veh1 routing_veh1" vType="veh_passenger" speedFactor="0.94" vaporized=""/>
    <tripinfo id="veh11" depart="40.00" departLane="67701598#0_1" departPos="5.10" departSpeed="11.45" departDelay="-0.86" arrival="84.00" arrivalLane="24252817#1_1" arrivalPos="287.83" arrivalSpeed="16.09" duration="44.00" routeLength="543.65" waitingTime="0.00" waitingCount="0" stopTime="0.00" timeLoss="5.13" rerouteNo="1" devices="tripinfo_veh11 routing_veh11" vType="veh_passenger" speedFactor="1.03" vaporized=""/>
    <tripinfo id="veh7" depart="26.00" departLane="319802412_1" departPos="5.10" departSpeed="9.17" departDelay="0.00" arrival="87.00" arrivalLane="319655874#9_1" arrivalPos="102.61" arrivalSpeed="13.71" duration="61.00" routeLength="530.33" waitingTime="0.00" waitingCount="0" stopTime="0.00" timeLoss="5.68" rerouteNo="1" devices="tripinfo_veh7 routing_veh7" vType="veh_passenger" speedFactor="0.83" vaporized=""/>
    <tripinfo id="veh7.1" depart="27.00" departLane="319802412_1" departPos="5.10" departSpeed="4.90" departDelay="1.00" arrival="88.00" arrivalLane="319655874#9_1" arrivalPos="102.61" arrivalSpeed="13.64" duration="61.00" routeLength="530.33" waitingTime="0.00" waitingCount="0" stopTime="0.00" timeLoss="9.79" rerouteNo="1" devices="tripinfo_veh7.1 routing_veh7.1" vType="veh_passenger" speedFactor="0.87" vaporized=""/>
    <tripinfo id="veh11.1" depart="41.00" departLane="67701598#0_1" departPos="5.10" departSpeed="7.30" departDelay="0.14" arrival="89.00" arrivalLane="24252817#1_1" arrivalPos="287.83" arrivalSpeed="15.51" duration="48.00" routeLength="543.65" waitingTime="0.00" waitingCount="0" stopTime="0.00" timeLoss="6.15" rerouteNo="1" devices="tripinfo_veh11.1 routing_veh11.1" vType="veh_passenger" speedFactor="0.96" vaporized=""/>
    <tripinfo id="veh7.2" depart="29.00" departLane="319802412_1" departPos="5.10" departSpeed="1.86" departDelay="3.00" arrival="90.00" arrivalLane="319655874#9_1" arrivalPos="102.61" arrivalSpeed="15.20" duration="61.00" routeLength="530.33" waitingTime="0.00" waitingCount="0" stopTime="0.00" timeLoss="11.81" rerouteNo="1" devices="tripinfo_veh7.2 routing_veh7.2" vType="veh_passenger" speedFactor="0.92" vaporized=""/>
    <tripinfo id="veh11.2" depart="43.00" departLane="67701598#0_1" departPos="5.10" departSpeed="8.74" departDelay="2.14" arrival="91.00" arrivalLane="24252817#1_1" arrivalPos="287.83" arrivalSpeed="18.16" duration="48.00" routeLength="543.65" waitingTime="0.00" waitingCount="0" stopTime="0.00" timeLoss="10.70" rerouteNo="1" devices="tripinfo_veh11.2 routing_veh11.2" vType="veh_passenger" speedFactor="1.09" vaporized=""/>
    <tripinfo id="veh7.3" depart="32.00" departLane="319802412_1" departPos="5.10" departSpeed="1.08" departDelay="6.00" arrival="93.00" arrivalLane="319655874#9_1" arrivalPos="102.61" arrivalSpeed="15.76" duration="61.00" routeLength="530.33" waitingTime="0.00" waitingCount="0" stopTime="0.00" timeLoss="12.62" rerouteNo="1" devices="tripinfo_veh7.3 routing_veh7.3" vType="veh_passenger" speedFactor="0.95" vaporized=""/>
    <tripinfo id="veh11.3" depart="44.00" departLane="67701598#0_1" departPos="5.10" departSpeed="4.18" departDelay="3.14" arrival="93.00" arrivalLane="24252817#1_1" arrivalPos="287.83" arrivalSpeed="16.87" duration="49.00" routeLength="543.65" waitingTime="0.00" waitingCount="0" stopTime="0.00" timeLoss="10.61" rerouteNo="1" devices="tripinfo_veh11.3 routing_veh11.3" vType="veh_passenger" speedFactor="1.04" vaporized=""/>
    <tripinfo id="veh0" depart="0.00" departLane="319802412_0" departPos="5.10" departSpeed="11.78" departDelay="0.00" arrival="110.00" arrivalLane="-129822384#0_0" arrivalPos="126.97" arrivalSpeed="10.67" duration="110.00" routeLength="1035.39" waitingTime="6.00" waitingCount="1" stopTime="0.00" timeLoss="20.78" rerouteNo="1" devices="tripinfo_veh0 routing_veh0" vType="veh_passenger" speedFactor="1.06" vaporized=""/>
    <tripinfo id="veh2" depart="7.00" departLane="33783335#0_0" departPos="5.10" departSpeed="11.45" departDelay="-0.43" arrival="114.00" arrivalLane="330154009#2_0" arrivalPos="99.91" arrivalSpeed="10.23" duration="107.00" routeLength="878.86" waitingTime="16.00" waitingCount="1" stopTime="0.00" timeLoss="31.86" rerouteNo="1" devices="tripinfo_veh2 routing_veh2" vType="veh_passenger" speedFactor="1.03" vaporized=""/>
    <tripinfo id="veh2.2" depart="9.00" departLane="33783335#0_0" departPos="5.10" departSpeed="4.21" departDelay="1.57" arrival="116.00" arrivalLane="330154009#2_0" arrivalPos="99.91" arrivalSpeed="10.89" duration="107.00" routeLength="878.86" waitingTime="14.00" waitingCount="1" stopTime="0.00" timeLoss="32.35" rerouteNo="1" devices="tripinfo_veh2.2 routing_veh2.2" vType="veh_passenger" speedFactor="1.05" vaporized=""/>
    <tripinfo id="veh6" depart="22.00" departLane="-23804813#2_0" departPos="5.10" departSpeed="11.31" departDelay="-0.29" arrival="124.00" arrivalLane="24252105#2_0" arrivalPos="320.39" arrivalSpeed="10.19" duration="102.00" routeLength="1026.29" waitingTime="0.00" waitingCount="0" stopTime="0.00" timeLoss="9.87" rerouteNo="1" devices="tripinfo_veh6 routing_veh6" vType="veh_passenger" speedFactor="1.02" vaporized=""/>
    <tripinfo id="veh2.1" depart="8.00" departLane="33783335#0_0" departPos="5.10" departSpeed="8.15" departDelay="0.57" arrival="125.00" arrivalLane="330154009#2_0" arrivalPos="99.91" arrivalSpeed="8.97" duration="117.00" routeLength="878.86" waitingTime="5.00" waitingCount="1" stopTime="0.00" timeLoss="22.62" rerouteNo="1" devices="tripinfo_veh2.1 routing_veh2.1" vType="veh_passenger" speedFactor="0.83" vaporized=""/>
    <tripinfo id="veh2.3" depart="11.00" departLane="33783335#0_0" departPos="5.10" departSpeed="2.33" departDelay="3.57" arrival="127.00" arrivalLane="330154009#2_0" arrivalPos="99.91" arrivalSpeed="9.35" duration="116.00" routeLength="878.86" waitingTime="3.00" waitingCount="1" stopTime="0.00" timeLoss="27.47" rerouteNo="1" devices="tripinfo_veh2.3 routing_veh2.3" vType="veh_passenger" speedFactor="0.89" vaporized=""/>
    <tripinfo id="veh6.1" depart="23.00" departLane="-23804813#2_0" departPos="5.10" departSpeed="8.18" departDelay="0.71" arrival="128.00" arrivalLane="24252105#2_0" arrivalPos="320.39" arrivalSpeed="10.77" duration="105.00" routeLength="1026.29" waitingTime="0.00" waitingCount="0" stopTime="0.00" timeLoss="11.74" rerouteNo="1" devices="tripinfo_veh6.1 routing_veh6.1" vType="veh_passenger" speedFactor="1.01" vaporized=""/>
    <tripinfo id="up_3.2" depart="14.00" departLane="67701598#0_0" departPos="5.10" departSpeed="0.00" departDelay="10.00" arrival="129.00" arrivalLane="338413096_0" arrivalPos="307.50" arrivalSpeed="16.31" duration="115.00" routeLength="786.71" waitingTime="20.00" waitingCount="1" stopTime="0.00" timeLoss="64.80" rerouteNo="0" devices="tripinfo_up_3.2" vType="Bus" speedFactor="1.24" vaporized=""/>
    <tripinfo id="up_3.1" depart="9.00" departLane="67701598#0_0" departPos="5.10" departSpeed="0.00" departDelay="5.00" arrival="129.00" arrivalLane="338413096_1" arrivalPos="307.50" arrivalSpeed="16.12" duration="120.00" routeLength="786.71" waitingTime="27.00" waitingCount="2" stopTime="0.00" timeLoss="64.13" rerouteNo="0" devices="tripinfo_up_3.1" vType="Bus" speedFactor="0.97" vaporized=""/>
    <tripinfo id="up_3" depart="4.00" departLane="67701598#0_0" departPos="5.10" departSpeed="0.00" departDelay="0.00" arrival="131.00" arrivalLane="338413096_0" arrivalPos="307.50" arrivalSpeed="16.28" duration="127.00" routeLength="786.71" waitingTime="32.00" waitingCount="2" stopTime="0.00" timeLoss="72.61" rerouteNo="0" devices="tripinfo_up_3" vType="Bus" speedFactor="1.02" vaporized=""/>
    <tripinfo id="up_3.3" depart="19.00" departLane="67701598#0_0" departPos="5.10" departSpeed="0.00" departDelay="15.00" arrival="131.00" arrivalLane="338413096_2" arrivalPos="307.50" arrivalSpeed="16.48" duration="112.00" routeLength="786.71" waitingTime="23.00" waitingCount="1" stopTime="0.00" timeLoss="60.13" rerouteNo="0" devices="tripinfo_up_3.3" vType="Bus" speedFactor="1.11" vaporized=""/>
    <tripinfo id="up_6" depart="24.00" departLane="67701598#0_0" departPos="5.10" departSpeed="0.00" departDelay="8.00" arrival="131.00" arrivalLane="338413096_1" arrivalPos="307.50" arrivalSpeed="16.55" duration="107.00" routeLength="786.71" waitingTime="20.00" waitingCount="1" stopTime="0.00" timeLoss="53.35" rerouteNo="0" devices="tripinfo_up_6" vType="Bus" speedFactor="1.04" vaporized=""/>
    <tripinfo id="veh6.2" depart="24.00" departLane="-23804813#2_0" departPos="5.10" departSpeed="3.51" departDelay="1.71" arrival="132.00" arrivalLane="24252105#2_0" arrivalPos="320.39" arrivalSpeed="10.39" duration="108.00" routeLength="1026.29" waitingTime="0.00" waitingCount="0" stopTime="0.00" timeLoss="12.43" rerouteNo="1" devices="tripinfo_veh6.2 routing_veh6.2" vType="veh_passenger" speedFactor="0.98" vaporized=""/>
    <tripinfo id="up_6.2" depart="34.00" departLane="67701598#0_0" departPos="5.10" departSpeed="0.00" departDelay="18.00" arrival="133.00" arrivalLane="338413096_2" arrivalPos="307.50" arrivalSpeed="16.42" duration="99.00" routeLength="786.71" waitingTime="17.00" waitingCount="1" stopTime="0.00" timeLoss="46.54" rerouteNo="0" devices="tripinfo_up_6.2" vType="Bus" speedFactor="1.10" vaporized=""/>
    <tripinfo id="up_6.3" depart="39.00" departLane="67701598#0_0" departPos="5.10" departSpeed="0.00" departDelay="23.00" arrival="133.00" arrivalLane="338413096_1" arrivalPos="307.50" arrivalSpeed="16.66" duration="94.00" routeLength="786.71" waitingTime="10.00" waitingCount="1" stopTime="0.00" timeLoss="41.55" rerouteNo="0" devices="tripinfo_up_6.3" vType="Bus" speedFactor="1.13" vaporized=""/>
    <tripinfo id="veh4" depart="14.00" departLane="315557586#0_1" departPos="5.10" departSpeed="17.45" departDelay="-0.86" arrival="133.00" arrivalLane="-129822384#2_0" arrivalPos="43.16" arrivalSpeed="10.56" duration="119.00" routeLength="1243.15" waitingTime="6.00" waitingCount="1" stopTime="0.00" timeLoss="25.59" rerouteNo="1" devices="tripinfo_veh4 routing_veh4" vType="veh_passenger" speedFactor="1.05" vaporized=""/>
    <tripinfo id="up_6.1" depart="29.00" departLane="67701598#0_0" departPos="5.10" departSpeed="0.00" departDelay="13.00" arrival="134.00" arrivalLane="338413096_0" arrivalPos="307.50" arrivalSpeed="14.49" duration="105.00" routeLength="786.71" waitingTime="12.00" waitingCount="2" stopTime="0.00" timeLoss="44.02" rerouteNo="0" devices="tripinfo_up_6.1" vType="Bus" speedFactor="0.88" vaporized=""/>
    <tripinfo id="right_2" depart="3.00" departLane="14342450_0" departPos="5.10" departSpeed="0.00" departDelay="0.00" arrival="136.00" arrivalLane="315218164#11_0" arrivalPos="42.74" arrivalSpeed="16.48" duration="133.00" routeLength="1078.03" waitingTime="39.00" waitingCount="1" stopTime="0.00" timeLoss="67.79" rerouteNo="0" devices="tripinfo_right_2" vType="Bus" speedFactor="1.00" vaporized=""/>
    <tripinfo id="left_1" depart="5.00" departLane="319655874#0_0" departPos="5.10" departSpeed="0.00" departDelay="3.00" arrival="136.00" arrivalLane="24252817#1_1" arrivalPos="287.83" arrivalSpeed="16.41" duration="131.00" routeLength="1149.81" waitingTime="32.00" waitingCount="1" stopTime="0.00" timeLoss="61.51" rerouteNo="0" devices="tripinfo_left_1" vType="Bus" speedFactor="1.08" vaporized=""/>
    <tripinfo id="left_0" depart="0.00" departLane="319655874#0_0" departPos="5.10" departSpeed="0.00" departDelay="0.00" arrival="137.00" arrivalLane="24252817#1_0" arrivalPos="287.83" arrivalSpeed="16.62" duration="137.00" routeLength="1149.81" waitingTime="38.00" waitingCount="1" stopTime="0.00" timeLoss="67.57" rerouteNo="0" devices="tripinfo_left_0" vType="Bus" speedFactor="1.01" vaporized=""/>
    <tripinfo id="left_4.1" depart="15.00" departLane="319655874#0_0" departPos="5.10" departSpeed="0.00" departDelay="5.00" arrival="138.00" arrivalLane="24252817#1_1" arrivalPos="287.83" arrivalSpeed="16.52" duration="123.00" routeLength="1149.81" waitingTime="22.00" waitingCount="1" stopTime="0.00" timeLoss="53.20" rerouteNo="0" devices="tripinfo_left_4.1" vType="Bus" speedFactor="0.99" vaporized=""/>
    <tripinfo id="left_4" depart="10.00" departLane="319655874#0_0" departPos="5.10" departSpeed="0.00" departDelay="0.00" arrival="139.00" arrivalLane="24252817#1_0" arrivalPos="287.83" arrivalSpeed="16.53" duration="129.00" routeLength="1149.81" waitingTime="28.00" waitingCount="1" stopTime="0.00" timeLoss="59.53" rerouteNo="0" devices="tripinfo_left_4" vType="Bus" speedFactor="1.09" vaporized=""/>
    <tripinfo id="left_4.2" depart="20.00" departLane="319655874#0_0" departPos="5.10" departSpeed="0.00" departDelay="10.00" arrival="141.00" arrivalLane="24252817#1_0" arrivalPos="287.83" arrivalSpeed="16.64" duration="121.00" routeLength="1149.81" waitingTime="21.00" waitingCount="1" stopTime="0.00" timeLoss="51.13" rerouteNo="0" devices="tripinfo_left_4.2" vType="Bus" speedFactor="1.04" vaporized=""/>
    <tripinfo id="veh6.3" depart="26.00" departLane="-23804813#2_0" departPos="5.10" departSpeed="1.68" departDelay="3.71" arrival="144.00" arrivalLane="24252105#2_0" arrivalPos="320.39" arrivalSpeed="8.78" duration="118.00" routeLength="1026.29" waitingTime="0.00" waitingCount="0" stopTime="0.00" timeLoss="12.91" rerouteNo="1" devices="tripinfo_veh6.3 routing_veh6.3" vType="veh_passenger" speedFactor="0.89" vaporized=""/>
    <tripinfo id="veh10" depart="37.00" departLane="24252819#0_0" departPos="5.10" departSpeed="10.81" departDelay="-0.15" arrival="153.00" arrivalLane="23804816#1_0" arrivalPos="341.17" arrivalSpeed="10.22" duration="116.00" routeLength="1029.28" waitingTime="0.00" waitingCount="0" stopTime="0.00" timeLoss="11.12" rerouteNo="1" devices="tripinfo_veh10 routing_veh10" vType="veh_passenger" speedFactor="0.97" vaporized=""/>
    <tripinfo id="veh10.1" depart="38.00" departLane="24252819#0_0" departPos="5.10" departSpeed="6.98" departDelay="0.85" arrival="155.00" arrivalLane="23804816#1_0" arrivalPos="341.17" arrivalSpeed="12.03" duration="117.00" routeLength="1029.28" waitingTime="0.00" waitingCount="0" stopTime="0.00" timeLoss="30.25" rerouteNo="1" devices="tripinfo_veh10.1 routing_veh10.1" vType="veh_passenger" speedFactor="1.18" vaporized=""/>
    <tripinfo id="veh10.2" depart="40.00" departLane="24252819#0_0" departPos="5.10" departSpeed="6.18" departDelay="2.85" arrival="157.00" arrivalLane="23804816#1_0" arrivalPos="341.17" arrivalSpeed="11.30" duration="117.00" routeLength="1029.28" waitingTime="0.00" waitingCount="0" stopTime="0.00" timeLoss="23.63" rerouteNo="1" devices="tripinfo_veh10.2 routing_veh10.2" vType="veh_passenger" speedFactor="1.10" vaporized=""/>
    <tripinfo id="veh4.1" depart="15.00" departLane="315557586#0_1" departPos="5.10" departSpeed="15.45" departDelay="0.14" arrival="160.00" arrivalLane="-129822384#2_0" arrivalPos="43.16" arrivalSpeed="11.71" duration="145.00" routeLength="1243.15" waitingTime="29.00" waitingCount="2" stopTime="0.00" timeLoss="58.81" rerouteNo="1" devices="tripinfo_veh4.1 routing_veh4.1" vType="veh_passenger" speedFactor="1.12" vaporized=""/>
    <tripinfo id="veh24" depart="89.00" departLane="319802412_1" departPos="5.10" departSpeed="9.26" departDelay="-0.16" arrival="166.00" arrivalLane="319802403#5_0" arrivalPos="134.98" arrivalSpeed="8.65" duration="77.00" routeLength="638.81" waitingTime="0.00" waitingCount="0" stopTime="0.00" timeLoss="7.05" rerouteNo="1" devices="tripinfo_veh24 routing_veh24" vType="veh_passenger" speedFactor="0.83" vaporized=""/>
    <tripinfo id="veh22" depart="81.00" departLane="315218164#1_1" departPos="5.10" departSpeed="0.00" departDelay="-0.73" arrival="167.00" arrivalLane="24252105#2_0" arrivalPos="320.39" arrivalSpeed="12.44" duration="86.00" routeLength="668.16" waitingTime="6.00" waitingCount="2" stopTime="0.00" timeLoss="35.67" rerouteNo="1" devices="tripinfo_veh22 routing_veh22" vType="veh_passenger" speedFactor="1.15" vaporized=""/>
    <tripinfo id="down_11.1" depart="36.00" departLane="315557586#0_0" departPos="5.10" departSpeed="0.00" departDelay="5.00" arrival="168.00" arrivalLane="33783509#2_0" arrivalPos="109.68" arrivalSpeed="14.04" duration="132.00" routeLength="788.95" waitingTime="35.00" waitingCount="2" stopTime="0.00" timeLoss="81.73" rerouteNo="0" devices="tripinfo_down_11.1" vType="Bus" speedFactor="1.30" vaporized=""/>
    <tripinfo id="veh24.2" depart="92.00" departLane="319802412_1" departPos="5.10" departSpeed="5.00" departDelay="2.84" arrival="168.00" arrivalLane="319802403#5_0" arrivalPos="134.98" arrivalSpeed="11.69" duration="76.00" routeLength="638.81" waitingTime="1.00" waitingCount="1" stopTime="0.00" timeLoss="21.88" rerouteNo="1" devices="tripinfo_veh24.2 routing_veh24.2" vType="veh_passenger" speedFactor="1.09" vaporized=""/>
    <tripinfo id="down_11" depart="31.00" departLane="315557586#0_0" departPos="5.10" departSpeed="0.00" departDelay="0.00" arrival="169.00" arrivalLane="33783509#2_1" arrivalPos="109.68" arrivalSpeed="10.48" duration="138.00" routeLength="788.95" waitingTime="38.00" waitingCount="2" stopTime="0.00" timeLoss="81.57" rerouteNo="0" devices="tripinfo_down_11" vType="Bus" speedFactor="0.96" vaporized=""/>
    <tripinfo id="down_11.2" depart="41.00" departLane="315557586#0_0" departPos="5.10" departSpeed="0.00" departDelay="10.00" arrival="170.00" arrivalLane="33783509#2_0" arrivalPos="109.68" arrivalSpeed="11.05" duration="129.00" routeLength="788.95" waitingTime="29.00" waitingCount="2" stopTime="0.00" timeLoss="74.94" rerouteNo="0" devices="tripinfo_down_11.2" vType="Bus" speedFactor="1.01" vaporized=""/>
    <tripinfo id="veh24.1" depart="90.00" departLane="319802412_1" departPos="5.10" departSpeed="4.84" departDelay="0.84" arrival="170.00" arrivalLane="319802403#5_0" arrivalPos="134.98" arrivalSpeed="9.31" duration="80.00" routeLength="638.81" waitingTime="1.00" waitingCount="1" stopTime="0.00" timeLoss="16.72" rerouteNo="1" devices="tripinfo_veh24.1 routing_veh24.1" vType="veh_passenger" speedFactor="0.92" vaporized=""/>
    <tripinfo id="veh24.3" depart="94.00" departLane="319802412_1" departPos="5.10" departSpeed="4.17" departDelay="4.84" arrival="172.00" arrivalLane="319802403#5_1" arrivalPos="134.98" arrivalSpeed="11.01" duration="78.00" routeLength="638.81" waitingTime="0.00" waitingCount="0" stopTime="0.00" timeLoss="22.07" rerouteNo="1" devices="tripinfo_veh24.3 routing_veh24.3" vType="veh_passenger" speedFactor="1.06" vaporized=""/>
    <tripinfo id="veh9" depart="33.00" departLane="33783509#1_1" departPos="5.10" departSpeed="0.00" departDelay="-0.43" arrival="173.00" arrivalLane="-129822384#0_0" arrivalPos="126.97" arrivalSpeed="10.62" duration="140.00" routeLength="891.54" waitingTime="26.00" waitingCount="3" stopTime="0.00" timeLoss="60.03" rerouteNo="1" devices="tripinfo_veh9 routing_veh9" vType="veh_passenger" speedFactor="1.01" vaporized=""/>
    <tripinfo id="down_11.3" depart="46.00" departLane="315557586#0_0" departPos="5.10" departSpeed="0.00" departDelay="15.00" arrival="174.00" arrivalLane="33783509#2_1" arrivalPos="109.68" arrivalSpeed="9.27" duration="128.00" routeLength="788.95" waitingTime="24.00" waitingCount="2" stopTime="0.00" timeLoss="64.69" rerouteNo="0" devices="tripinfo_down_11.3" vType="Bus" speedFactor="0.84" vaporized=""/>
    <tripinfo id="down_21" depart="72.00" departLane="315557586#0_0" departPos="5.10" departSpeed="0.00" departDelay="0.00" arrival="175.00" arrivalLane="33783509#2_0" arrivalPos="109.68" arrivalSpeed="12.18" duration="103.00" routeLength="788.95" waitingTime="12.00" waitingCount="1" stopTime="0.00" timeLoss="49.85" rerouteNo="0" devices="tripinfo_down_21" vType="Bus" speedFactor="1.10" vaporized=""/>
    <tripinfo id="down_21.1" depart="77.00" departLane="315557586#0_0" departPos="5.10" departSpeed="0.00" departDelay="5.00" arrival="176.00" arrivalLane="33783509#2_1" arrivalPos="109.68" arrivalSpeed="9.80" duration="99.00" routeLength="788.95" waitingTime="10.00" waitingCount="1" stopTime="0.00" timeLoss="43.57" rerouteNo="0" devices="tripinfo_down_21.1" vType="Bus" speedFactor="0.98" vaporized=""/>
    <tripinfo id="down_21.2" depart="82.00" departLane="315557586#0_0" departPos="5.10" departSpeed="0.00" departDelay="10.00" arrival="177.00" arrivalLane="33783509#2_0" arrivalPos="109.68" arrivalSpeed="10.66" duration="95.00" routeLength="788.95" waitingTime="9.00" waitingCount="1" stopTime="0.00" timeLoss="39.50" rerouteNo="0" devices="tripinfo_down_21.2" vType="Bus" speedFactor="0.98" vaporized=""/>
    <tripinfo id="veh9.1" depart="36.00" departLane="33783509#1_1" departPos="5.10" departSpeed="0.00" departDelay="2.57" arrival="177.00" arrivalLane="-129822384#0_0" arrivalPos="126.97" arrivalSpeed="12.66" duration="141.00" routeLength="891.54" waitingTime="21.00" waitingCount="2" stopTime="0.00" timeLoss="71.85" rerouteNo="1" devices="tripinfo_veh9.1 routing_veh9.1" vType="veh_passenger" speedFactor="1.17" vaporized=""/>
    <tripinfo id="down_21.3" depart="87.00" departLane="315557586#0_0" departPos="5.10" departSpeed="0.00" departDelay="15.00" arrival="178.00" arrivalLane="33783509#2_1" arrivalPos="109.68" arrivalSpeed="10.90" duration="91.00" routeLength="788.95" waitingTime="1.00" waitingCount="1" stopTime="0.00" timeLoss="38.93" rerouteNo="0" devices="tripinfo_down_21.3" vType="Bus" speedFactor="1.16" vaporized=""/>
    <tripinfo id="veh22.2" depart="88.00" departLane="315218164#1_1" departPos="5.10" departSpeed="0.00" departDelay="6.27" arrival="178.00" arrivalLane="24252105#2_1" arrivalPos="320.39" arrivalSpeed="10.12" duration="90.00" routeLength="668.16" waitingTime="4.00" waitingCount="3" stopTime="0.00" timeLoss="32.04" rerouteNo="1" devices="tripinfo_veh22.2 routing_veh22.2" vType="veh_passenger" speedFactor="1.00" vaporized=""/>
    <tripinfo id="veh22.3" depart="92.00" departLane="315218164#1_1" departPos="5.10" departSpeed="0.00" departDelay="10.27" arrival="179.00" arrivalLane="24252105#2_1" arrivalPos="320.39" arrivalSpeed="10.82" duration="87.00" routeLength="668.16" waitingTime="2.00" waitingCount="2" stopTime="0.00" timeLoss="31.68" rerouteNo="1" devices="tripinfo_veh22.3 routing_veh22.3" vType="veh_passenger" speedFactor="1.04" vaporized=""/>
    <tripinfo id="down_24" depart="92.00" departLane="315557586#0_0" departPos="5.10" departSpeed="0.00" departDelay="7.00" arrival="179.00" arrivalLane="33783509#2_0" arrivalPos="109.68" arrivalSpeed="10.72" duration="87.00" routeLength="788.95" waitingTime="1.00" waitingCount="1" stopTime="0.00" timeLoss="32.35" rerouteNo="0" devices="tripinfo_down_24" vType="Bus" speedFactor="0.99" vaporized=""/>
    <tripinfo id="veh22.1" depart="84.00" departLane="315218164#1_1" departPos="5.10" departSpeed="0.00" departDelay="2.27" arrival="179.00" arrivalLane="24252105#2_0" arrivalPos="320.39" arrivalSpeed="10.51" duration="95.00" routeLength="668.16" waitingTime="3.00" waitingCount="2" stopTime="0.00" timeLoss="35.42" rerouteNo="1" devices="tripinfo_veh22.1 routing_veh22.1" vType="veh_passenger" speedFactor="0.98" vaporized=""/>
    <tripinfo id="veh9.2" depart="39.00" departLane="33783509#1_1" departPos="5.10" departSpeed="0.00" departDelay="5.57" arrival="180.00" arrivalLane="-129822384#0_0" arrivalPos="126.97" arrivalSpeed="9.94" duration="141.00" routeLength="891.54" waitingTime="19.00" waitingCount="2" stopTime="0.00" timeLoss="59.88" rerouteNo="1" devices="tripinfo_veh9.2 routing_veh9.2" vType="veh_passenger" speedFactor="0.99" vaporized=""/>
    <tripinfo id="veh9.3" depart="42.00" departLane="33783509#1_1" departPos="5.10" departSpeed="0.00" departDelay="8.57" arrival="182.00" arrivalLane="-129822384#0_0" arrivalPos="126.97" arrivalSpeed="11.15" duration="140.00" routeLength="891.54" waitingTime="18.00" waitingCount="3" stopTime="0.00" timeLoss="60.90" rerouteNo="1" devices="tripinfo_veh9.3 routing_veh9.3" vType="veh_passenger" speedFactor="1.02" vaporized=""/>
    <tripinfo id="veh19.1" depart="71.00" departLane="-432966955_0" departPos="5.10" departSpeed="4.57" departDelay="0.42" arrival="184.00" arrivalLane="24252105#2_0" arrivalPos="320.39" arrivalSpeed="11.58" duration="113.00" routeLength="772.65" waitingTime="26.00" waitingCount="3" stopTime="0.00" timeLoss="49.58" rerouteNo="1" devices="tripinfo_veh19.1 routing_veh19.1" vType="veh_passenger" speedFactor="1.06" vaporized=""/>
    <tripinfo id="veh19" depart="70.00" departLane="-432966955_0" departPos="5.10" departSpeed="7.60" departDelay="-0.58" arrival="187.00" arrivalLane="24252105#2_0" arrivalPos="320.39" arrivalSpeed="9.55" duration="117.00" routeLength="772.65" waitingTime="17.00" waitingCount="2" stopTime="0.00" timeLoss="45.71" rerouteNo="1" devices="tripinfo_veh19 routing_veh19" vType="veh_passenger" speedFactor="0.94" vaporized=""/>
    <tripinfo id="right_5" depart="24.00" departLane="14342450_0" departPos="5.10" departSpeed="0.00" departDelay="13.00" arrival="194.00" arrivalLane="315218164#11_1" arrivalPos="42.74" arrivalSpeed="8.90" duration="170.00" routeLength="1078.03" waitingTime="61.00" waitingCount="2" stopTime="0.00" timeLoss="102.95" rerouteNo="0" devices="tripinfo_right_5" vType="Bus" speedFactor="0.97" vaporized=""/>
    <tripinfo id="right_2.1" depart="8.00" departLane="14342450_0" departPos="5.10" departSpeed="0.00" departDelay="5.00" arrival="194.00" arrivalLane="315218164#11_0" arrivalPos="42.74" arrivalSpeed="8.75" duration="186.00" routeLength="1078.03" waitingTime="80.00" waitingCount="2" stopTime="0.00" timeLoss="120.93" rerouteNo="0" devices="tripinfo_right_2.1" vType="Bus" speedFactor="1.15" vaporized=""/>
    <tripinfo id="right_7" depart="45.00" departLane="14342450_0" departPos="5.10" departSpeed="0.00" departDelay="23.00" arrival="196.00" arrivalLane="315218164#11_1" arrivalPos="42.74" arrivalSpeed="8.86" duration="151.00" routeLength="1078.03" waitingTime="39.00" waitingCount="2" stopTime="0.00" timeLoss="82.72" rerouteNo="0" devices="tripinfo_right_7" vType="Bus" speedFactor="0.95" vaporized=""/>
    <tripinfo id="right_7.2" depart="55.00" departLane="14342450_0" departPos="5.10" departSpeed="0.00" departDelay="33.00" arrival="198.00" arrivalLane="315218164#11_1" arrivalPos="42.74" arrivalSpeed="9.06" duration="143.00" routeLength="1078.03" waitingTime="30.00" waitingCount="2" stopTime="0.00" timeLoss="76.22" rerouteNo="0" devices="tripinfo_right_7.2" vType="Bus" speedFactor="0.97" vaporized=""/>
    <tripinfo id="right_2.2" depart="13.00" departLane="14342450_0" departPos="5.10" departSpeed="0.00" departDelay="10.00" arrival="198.00" arrivalLane="315218164#11_0" arrivalPos="42.74" arrivalSpeed="9.63" duration="185.00" routeLength="1078.03" waitingTime="67.00" waitingCount="2" stopTime="0.00" timeLoss="107.39" rerouteNo="0" devices="tripinfo_right_2.2" vType="Bus" speedFactor="0.84" vaporized=""/>
    <tripinfo id="right_10" depart="85.00" departLane="14342450_0" departPos="5.10" departSpeed="0.00" departDelay="54.00" arrival="200.00" arrivalLane="315218164#11_1" arrivalPos="42.74" arrivalSpeed="10.04" duration="115.00" routeLength="1078.03" waitingTime="21.00" waitingCount="1" stopTime="0.00" timeLoss="49.27" rerouteNo="0" devices="tripinfo_right_10" vType="Bus" speedFactor="0.99" vaporized=""/>
    <tripinfo id="right_5.2" depart="35.00" departLane="14342450_0" departPos="5.10" departSpeed="0.00" departDelay="24.00" arrival="200.00" arrivalLane="315218164#11_0" arrivalPos="42.74" arrivalSpeed="10.16" duration="165.00" routeLength="1078.03" waitingTime="50.00" waitingCount="2" stopTime="0.00" timeLoss="93.76" rerouteNo="0" devices="tripinfo_right_5.2" vType="Bus" speedFactor="0.91" vaporized=""/>
    <tripinfo id="right_9.2" depart="75.00" departLane="14342450_0" departPos="5.10" departSpeed="0.00" departDelay="50.00" arrival="202.00" arrivalLane="315218164#11_1" arrivalPos="42.74" arrivalSpeed="9.97" duration="127.00" routeLength="1078.03" waitingTime="17.00" waitingCount="1" stopTime="0.00" timeLoss="57.40" rerouteNo="0" devices="tripinfo_right_9.2" vType="Bus" speedFactor="0.93" vaporized=""/>
    <tripinfo id="right_9" depart="65.00" departLane="14342450_0" departPos="5.10" departSpeed="0.00" departDelay="40.00" arrival="202.00" arrivalLane="315218164#11_0" arrivalPos="42.74" arrivalSpeed="10.58" duration="137.00" routeLength="1078.03" waitingTime="25.00" waitingCount="1" stopTime="0.00" timeLoss="72.03" rerouteNo="0" devices="tripinfo_right_9" vType="Bus" speedFactor="1.14" vaporized=""/>