<?xml version="1.0" encoding="UTF-8"?>

<!-- generated on 06/03/19 16:43:35 by Eclipse SUMO GUI Version 1.1.0
<configuration xmlns:xsi="http://www.w3.org/2001/XMLSchema-instance" xsi:noNamespaceSchemaLocation="http://sumo.dlr.de/xsd/sumoConfiguration.xsd">

    <input>
        <net-file value="data/osm.net.xml"/>
        <route-files value="data/osm.passenger.trips.xml,data/osm.rou.xml"/>
        <additional-files value="data/osm.poly.xml"/>
    </input>

    <output>
        <tripinfo-output value="tripinfo.xml"/>
    </output>

    <processing>
        <ignore-route-errors value="true"/>
    </processing>

    <routing>
        <device.rerouting.adaptation-steps value="180"/>
    </routing>

    <report>
        <verbose value="true"/>
        <duration-log.statistics value="true"/>
        <no-step-log value="true"/>
    </report>

    <traci_server>
        <remote-port value="59916"/>
    </traci_server>

    <gui_only>
        <gui-settings-file value="data/osm.view.xml"/>
    </gui_only>

</configuration>
-->

<tripinfos xmlns:xsi="http://www.w3.org/2001/XMLSchema-instance" xsi:noNamespaceSchemaLocation="http://sumo.dlr.de/xsd/tripinfo_file.xsd">
    <tripinfo id="veh7" depart="26.00" departLane="319802412_1" departPos="5.10" departSpeed="9.52" departDelay="0.00" arrival="62.00" arrivalLane="319655874#9_1" arrivalPos="102.61" arrivalSpeed="13.07" duration="36.00" routeLength="337.14" waitingTime="0.00" waitingCount="0" stopTime="0.00" timeLoss="3.50" rerouteNo="1" devices="tripinfo_veh7 routing_veh7" vType="veh_passenger" speedFactor="0.86" vaporized=""/>
    <tripinfo id="veh11" depart="40.00" departLane="67701598#0_1" departPos="5.10" departSpeed="12.48" departDelay="-0.86" arrival="75.00" arrivalLane="24252817#1_1" arrivalPos="182.46" arrivalSpeed="17.83" duration="35.00" routeLength="431.10" waitingTime="0.00" waitingCount="0" stopTime="0.00" timeLoss="5.03" rerouteNo="1" devices="tripinfo_veh11 routing_veh11" vType="veh_passenger" speedFactor="1.12" vaporized=""/>
    <tripinfo id="veh1" depart="3.00" departLane="24252105#0_0" departPos="5.10" departSpeed="0.00" departDelay="-0.71" arrival="81.00" arrivalLane="24252105#2_0" arrivalPos="320.39" arrivalSpeed="9.16" duration="78.00" routeLength="545.62" waitingTime="16.00" waitingCount="1" stopTime="0.00" timeLoss="24.97" rerouteNo="1" devices="tripinfo_veh1 routing_veh1" vType="veh_passenger" speedFactor="0.94" vaporized=""/>
    <tripinfo id="veh0" depart="0.00" departLane="319802412_0" departPos="5.10" departSpeed="11.78" departDelay="0.00" arrival="110.00" arrivalLane="-129822384#0_0" arrivalPos="126.97" arrivalSpeed="11.15" duration="110.00" routeLength="842.20" waitingTime="22.00" waitingCount="1" stopTime="0.00" timeLoss="37.58" rerouteNo="1" devices="tripinfo_veh0 routing_veh0" vType="veh_passenger" speedFactor="1.06" vaporized=""/>
    <tripinfo id="veh2" depart="7.00" departLane="33783335#0_0" departPos="5.10" departSpeed="11.45" departDelay="-0.43" arrival="114.00" arrivalLane="330154009#2_0" arrivalPos="99.91" arrivalSpeed="10.94" duration="107.00" routeLength="878.86" waitingTime="16.00" waitingCount="1" stopTime="0.00" timeLoss="31.41" rerouteNo="1" devices="tripinfo_veh2 routing_veh2" vType="veh_passenger" speedFactor="1.03" vaporized=""/>
    <tripinfo id="veh25" depart="92.00" departLane="14342450_0" departPos="5.10" departSpeed="15.51" departDelay="-0.87" arrival="120.00" arrivalLane="33783509#0_0" arrivalPos="51.61" arrivalSpeed="9.99" duration="28.00" routeLength="306.18" waitingTime="0.00" waitingCount="0" stopTime="0.00" timeLoss="5.08" rerouteNo="0" devices="tripinfo_veh25 routing_veh25" vType="veh_passenger" speedFactor="0.95" vaporized=""/>
    <tripinfo id="veh4" depart="14.00" departLane="315557586#0_1" departPos="5.10" departSpeed="17.43" departDelay="-0.86" arrival="125.00" arrivalLane="-129822384#2_0" arrivalPos="43.16" arrivalSpeed="10.77" duration="111.00" routeLength="1243.15" waitingTime="0.00" waitingCount="0" stopTime="0.00" timeLoss="18.12" rerouteNo="1" devices="tripinfo_veh4 routing_veh4" vType="veh_passenger" speedFactor="1.05" vaporized=""/>
    <tripinfo id="up_6" depart="16.00" departLane="67701598#0_0" departPos="5.10" departSpeed="0.00" departDelay="0.00" arrival="129.00" arrivalLane="338413096_1" arrivalPos="307.50" arrivalSpeed="16.43" duration="113.00" routeLength="779.53" waitingTime="30.00" waitingCount="1" stopTime="0.00" timeLoss="59.70" rerouteNo="0" devices="tripinfo_up_6" vType="Bus" speedFactor="1.02" vaporized=""/>
    <tripinfo id="up_3" depart="4.00" departLane="67701598#0_0" departPos="5.10" departSpeed="0.00" departDelay="0.00" arrival="130.00" arrivalLane="338413096_0" arrivalPos="307.50" arrivalSpeed="15.93" duration="126.00" routeLength="779.53" waitingTime="33.00" waitingCount="2" stopTime="0.00" timeLoss="69.98" rerouteNo="0" devices="tripinfo_up_3" vType="Bus" speedFactor="0.97" vaporized=""/>
    <tripinfo id="left_1" depart="5.00" departLane="319655874#0_0" departPos="5.10" departSpeed="0.00" departDelay="3.00" arrival="131.00" arrivalLane="24252817#1_1" arrivalPos="182.46" arrivalSpeed="16.49" duration="126.00" routeLength="1044.44" waitingTime="33.00" waitingCount="1" stopTime="0.00" timeLoss="63.07" rerouteNo="0" devices="tripinfo_left_1" vType="Bus" speedFactor="1.08" vaporized=""/>
    <tripinfo id="left_0" depart="0.00" departLane="319655874#0_0" departPos="5.10" departSpeed="0.00" departDelay="0.00" arrival="131.00" arrivalLane="24252817#1_0" arrivalPos="182.46" arrivalSpeed="16.43" duration="131.00" routeLength="1044.44" waitingTime="38.00" waitingCount="1" stopTime="0.00" timeLoss="67.65" rerouteNo="0" devices="tripinfo_left_0" vType="Bus" speedFactor="1.01" vaporized=""/>
    <tripinfo id="left_4" depart="10.00" departLane="319655874#0_0" departPos="5.10" departSpeed="0.00" departDelay="0.00" arrival="132.00" arrivalLane="24252817#1_0" arrivalPos="182.46" arrivalSpeed="16.38" duration="122.00" routeLength="1044.44" waitingTime="29.00" waitingCount="1" stopTime="0.00" timeLoss="59.21" rerouteNo="0" devices="tripinfo_left_4" vType="Bus" speedFactor="1.08" vaporized=""/>
    <tripinfo id="veh6" depart="22.00" departLane="-23804813#2_0" departPos="5.10" departSpeed="10.42" departDelay="-0.29" arrival="133.00" arrivalLane="24252105#2_0" arrivalPos="320.39" arrivalSpeed="9.29" duration="111.00" routeLength="1026.29" waitingTime="0.00" waitingCount="0" stopTime="0.00" timeLoss="11.33" rerouteNo="1" devices="tripinfo_veh6 routing_veh6" vType="veh_passenger" speedFactor="0.94" vaporized=""/>
    <tripinfo id="left_8" depart="22.00" departLane="319655874#0_0" departPos="5.10" departSpeed="0.00" departDelay="0.00" arrival="134.00" arrivalLane="24252817#1_1" arrivalPos="182.46" arrivalSpeed="15.26" duration="112.00" routeLength="1044.44" waitingTime="14.00" waitingCount="1" stopTime="0.00" timeLoss="44.48" rerouteNo="0" devices="tripinfo_left_8" vType="Bus" speedFactor="0.94" vaporized=""/>
    <tripinfo id="right_2" depart="3.00" departLane="14342450_0" departPos="5.10" departSpeed="0.00" departDelay="0.00" arrival="135.00" arrivalLane="315218164#11_0" arrivalPos="42.74" arrivalSpeed="16.49" duration="132.00" routeLength="1038.95" waitingTime="41.00" waitingCount="1" stopTime="0.00" timeLoss="69.15" rerouteNo="0" devices="tripinfo_right_2" vType="Bus" speedFactor="1.02" vaporized=""/>
    <tripinfo id="veh24" depart="89.00" departLane="319802412_1" departPos="5.10" departSpeed="10.19" departDelay="-0.16" arrival="138.00" arrivalLane="319802403#5_0" arrivalPos="134.98" arrivalSpeed="9.61" duration="49.00" routeLength="445.62" waitingTime="0.00" waitingCount="0" stopTime="0.00" timeLoss="4.16" rerouteNo="1" devices="tripinfo_veh24 routing_veh24" vType="veh_passenger" speedFactor="0.92" vaporized=""/>
    <tripinfo id="veh10" depart="37.00" departLane="24252819#0_0" departPos="5.10" departSpeed="11.63" departDelay="-0.15" arrival="147.00" arrivalLane="23804816#1_0" arrivalPos="341.17" arrivalSpeed="11.18" duration="110.00" routeLength="1029.28" waitingTime="0.00" waitingCount="0" stopTime="0.00" timeLoss="11.55" rerouteNo="1" devices="tripinfo_veh10 routing_veh10" vType="veh_passenger" speedFactor="1.05" vaporized=""/>
    <tripinfo id="veh9" depart="33.00" departLane="33783509#1_1" departPos="5.10" departSpeed="0.00" departDelay="-0.43" arrival="156.00" arrivalLane="-129822384#0_0" arrivalPos="126.97" arrivalSpeed="10.57" duration="123.00" routeLength="1135.17" waitingTime="0.00" waitingCount="0" stopTime="0.00" timeLoss="23.27" rerouteNo="1" devices="tripinfo_veh9 routing_veh9" vType="veh_passenger" speedFactor="1.03" vaporized=""/>
    <tripinfo id="down_21" depart="72.00" departLane="315557586#0_0" departPos="5.10" departSpeed="0.00" departDelay="0.00" arrival="168.00" arrivalLane="33783509#2_0" arrivalPos="106.43" arrivalSpeed="10.54" duration="96.00" routeLength="785.70" waitingTime="14.00" waitingCount="1" stopTime="0.00" timeLoss="40.57" rerouteNo="0" devices="tripinfo_down_21" vType="Bus" speedFactor="0.98" vaporized=""/>
    <tripinfo id="down_11" depart="31.00" departLane="315557586#0_0" departPos="5.10" departSpeed="0.00" departDelay="0.00" arrival="169.00" arrivalLane="33783509#2_0" arrivalPos="106.43" arrivalSpeed="9.78" duration="138.00" routeLength="785.70" waitingTime="39.00" waitingCount="2" stopTime="0.00" timeLoss="79.94" rerouteNo="0" devices="tripinfo_down_11" vType="Bus" speedFactor="0.91" vaporized=""/>
    <tripinfo id="veh19" depart="70.00" departLane="-432966955_0" departPos="5.10" departSpeed="7.60" departDelay="-0.58" arrival="169.00" arrivalLane="24252105#2_0" arrivalPos="320.39" arrivalSpeed="11.02" duration="99.00" routeLength="772.65" waitingTime="13.00" waitingCount="2" stopTime="0.00" timeLoss="33.37" rerouteNo="1" devices="tripinfo_veh19 routing_veh19" vType="veh_passenger" speedFactor="1.01" vaporized=""/>
    <tripinfo id="down_24" depart="85.00" departLane="315557586#0_0" departPos="5.10" departSpeed="0.00" departDelay="0.00" arrival="173.00" arrivalLane="33783509#2_0" arrivalPos="106.43" arrivalSpeed="11.12" duration="88.00" routeLength="785.70" waitingTime="2.00" waitingCount="1" stopTime="0.00" timeLoss="34.41" rerouteNo="0" devices="tripinfo_down_24" vType="Bus" speedFactor="1.03" vaporized=""/>
    <tripinfo id="veh17" depart="63.00" departLane="330172468#0_0" departPos="5.10" departSpeed="12.87" departDelay="-0.15" arrival="173.00" arrivalLane="-684280772#0_0" arrivalPos="79.14" arrivalSpeed="12.19" duration="110.00" routeLength="1006.43" waitingTime="15.00" waitingCount="1" stopTime="0.00" timeLoss="33.49" rerouteNo="1" devices="tripinfo_veh17 routing_veh17" vType="veh_passenger" speedFactor="1.16" vaporized=""/>
    <tripinfo id="veh22" depart="82.00" departLane="315218164#1_1" departPos="5.10" departSpeed="0.00" departDelay="0.27" arrival="177.00" arrivalLane="24252105#2_0" arrivalPos="320.39" arrivalSpeed="8.92" duration="95.00" routeLength="668.16" waitingTime="11.00" waitingCount="1" stopTime="0.00" timeLoss="24.31" rerouteNo="1" devices="tripinfo_veh22 routing_veh22" vType="veh_passenger" speedFactor="0.83" vaporized=""/>
    <tripinfo id="veh29" depart="107.00" departLane="23843773#0_0" departPos="5.10" departSpeed="12.83" departDelay="-0.73" arrival="194.00" arrivalLane="-129822384#4_0" arrivalPos="43.86" arrivalSpeed="11.73" duration="87.00" routeLength="1100.05" waitingTime="0.00" waitingCount="0" stopTime="0.00" timeLoss="8.89" rerouteNo="1" devices="tripinfo_veh29 routing_veh29" vType="veh_passenger" speedFactor="1.15" vaporized=""/>
    <tripinfo id="right_12" depart="37.00" departLane="14342450_0" departPos="5.10" departSpeed="0.00" departDelay="3.00" arrival="236.00" arrivalLane="315218164#11_1" arrivalPos="42.74" arrivalSpeed="8.44" duration="199.00" routeLength="1038.95" waitingTime="93.00" waitingCount="2" stopTime="0.00" timeLoss="136.44" rerouteNo="0" devices="tripinfo_right_12" vType="Bus" speedFactor="1.04" vaporized=""/>
    <tripinfo id="right_5" depart="11.00" departLane="14342450_0" departPos="5.10" departSpeed="0.00" departDelay="0.00" arrival="236.00" arrivalLane="315218164#11_0" arrivalPos="42.74" arrivalSpeed="8.62" duration="225.00" routeLength="1038.95" waitingTime="120.00" waitingCount="2" stopTime="0.00" timeLoss="162.50" rerouteNo="0" devices="tripinfo_right_5" vType="Bus" speedFactor="1.12" vaporized=""/>
    <tripinfo id="veh41" depart="152.00" departLane="129822384#0_0" departPos="5.10" departSpeed="11.53" departDelay="-0.31" arrival="237.00" arrivalLane="330154009#10_0" arrivalPos="110.67" arrivalSpeed="10.32" duration="85.00" routeLength="708.79" waitingTime="9.00" waitingCount="1" stopTime="0.00" timeLoss="22.48" rerouteNo="1" devices="tripinfo_veh41 routing_veh41" vType="veh_passenger" speedFactor="1.04" vaporized=""/>
    <tripinfo id="right_15" depart="47.00" departLane="14342450_0" departPos="5.10" departSpeed="0.00" departDelay="3.00" arrival="238.00" arrivalLane="315218164#11_1" arrivalPos="42.74" arrivalSpeed="8.71" duration="191.00" routeLength="1038.95" waitingTime="84.00" waitingCount="2" stopTime="0.00" timeLoss="126.68" rerouteNo="0" devices="tripinfo_right_15" vType="Bus" speedFactor="0.97" vaporized=""/>
    <tripinfo id="right_7" depart="22.00" departLane="14342450_0" departPos="5.10" departSpeed="0.00" departDelay="0.00" arrival="238.00" arrivalLane="315218164#11_0" arrivalPos="42.74" arrivalSpeed="8.88" duration="216.00" routeLength="1038.95" waitingTime="112.00" waitingCount="2" stopTime="0.00" timeLoss="152.85" rerouteNo="0" devices="tripinfo_right_7" vType="Bus" speedFactor="0.99" vaporized=""/>
    <tripinfo id="right_18" depart="63.00" departLane="14342450_0" departPos="5.10" departSpeed="0.00" departDelay="0.00" arrival="241.00" arrivalLane="315218164#11_1" arrivalPos="42.74" arrivalSpeed="10.01" duration="178.00" routeLength="1038.95" waitingTime="67.00" waitingCount="1" stopTime="0.00" timeLoss="112.21" rerouteNo="0" devices="tripinfo_right_18" vType="Bus" speedFactor="0.96" vaporized=""/>
    <tripinfo id="right_9" depart="27.00" departLane="14342450_0" departPos="5.10" departSpeed="0.00" departDelay="2.00" arrival="241.00" arrivalLane="315218164#11_0" arrivalPos="42.74" arrivalSpeed="9.99" duration="214.00" routeLength="1038.95" waitingTime="104.00" waitingCount="2" stopTime="0.00" timeLoss="142.79" rerouteNo="0" devices="tripinfo_right_9" vType="Bus" speedFactor="0.88" vaporized=""/>
    <tripinfo id="veh21" depart="78.00" departLane="319802412_1" departPos="5.10" departSpeed="9.88" departDelay="-0.01" arrival="242.00" arrivalLane="24252817#1_0" arrivalPos="182.46" arrivalSpeed="14.61" duration="164.00" routeLength="553.24" waitingTime="102.00" waitingCount="2" stopTime="0.00" timeLoss="117.67" rerouteNo="1" devices="tripinfo_veh21 routing_veh21" vType="veh_passenger" speedFactor="0.89" vaporized=""/>
    <tripinfo id="right_23" depart="81.00" departLane="14342450_0" departPos="5.10" departSpeed="0.00" departDelay="0.00" arrival="243.00" arrivalLane="315218164#11_1" arrivalPos="42.74" arrivalSpeed="9.95" duration="162.00" routeLength="1038.95" waitingTime="67.00" waitingCount="1" stopTime="0.00" timeLoss="99.46" rerouteNo="0" devices="tripinfo_right_23" vType="Bus" speedFactor="1.09" vaporized=""/>
    <tripinfo id="right_10" depart="32.00" departLane="14342450_0" departPos="5.10" departSpeed="0.00" departDelay="1.00" arrival="243.00" arrivalLane="315218164#11_0" arrivalPos="42.74" arrivalSpeed="9.88" duration="211.00" routeLength="1038.95" waitingTime="99.00" waitingCount="2" stopTime="0.00" timeLoss="141.98" rerouteNo="0" devices="tripinfo_right_10" vType="Bus" speedFactor="0.91" vaporized=""/>
    <tripinfo id="right_17" depart="56.00" departLane="14342450_0" departPos="5.10" departSpeed="0.00" departDelay="0.00" arrival="245.00" arrivalLane="315218164#11_1" arrivalPos="42.74" arrivalSpeed="10.70" duration="189.00" routeLength="1038.95" waitingTime="75.00" waitingCount="2" stopTime="0.00" timeLoss="126.31" rerouteNo="0" devices="tripinfo_right_17" vType="Bus" speedFactor="1.06" vaporized=""/>
    <tripinfo id="right_13" depart="42.00" departLane="14342450_0" departPos="5.10" departSpeed="0.00" departDelay="2.00" arrival="245.00" arrivalLane="315218164#11_0" arrivalPos="42.74" arrivalSpeed="10.33" duration="203.00" routeLength="1038.95" waitingTime="91.00" waitingCount="2" stopTime="0.00" timeLoss="140.31" rerouteNo="0" devices="tripinfo_right_13" vType="Bus" speedFactor="1.02" vaporized=""/>
    <tripinfo id="veh34" depart="126.00" departLane="670322549#0_0" departPos="5.10" departSpeed="8.11" departDelay="-0.30" arrival="247.00" arrivalLane="315218164#11_1" arrivalPos="42.74" arrivalSpeed="13.62" duration="121.00" routeLength="642.37" waitingTime="43.00" waitingCount="1" stopTime="0.00" timeLoss="66.50" rerouteNo="1" devices="tripinfo_veh34 routing_veh34" vType="veh_passenger" speedFactor="0.97" vaporized=""/>
    <tripinfo id="right_19" depart="68.00" departLane="14342450_0" departPos="5.10" departSpeed="0.00" departDelay="4.00" arrival="247.00" arrivalLane="315218164#11_0" arrivalPos="42.74" arrivalSpeed="10.40" duration="179.00" routeLength="1038.95" waitingTime="70.00" waitingCount="1" stopTime="0.00" timeLoss="115.30" rerouteNo="0" devices="tripinfo_right_19" vType="Bus" speedFactor="0.98" vaporized=""/>
    <tripinfo id="left_14" depart="41.00" departLane="319655874#0_0" departPos="5.10" departSpeed="0.00" departDelay="0.00" arrival="256.00" arrivalLane="24252817#1_1" arrivalPos="182.46" arrivalSpeed="16.51" duration="215.00" routeLength="1044.44" waitingTime="108.00" waitingCount="2" stopTime="0.00" timeLoss="151.90" rerouteNo="0" devices="tripinfo_left_14" vType="Bus" speedFactor="1.02" vaporized=""/>
    <tripinfo id="up_39" depart="135.00" departLane="67701598#0_0" departPos="5.10" departSpeed="0.00" departDelay="0.00" arrival="263.00" arrivalLane="338413096_1" arrivalPos="307.50" arrivalSpeed="16.67" duration="128.00" routeLength="779.53" waitingTime="46.00" waitingCount="1" stopTime="0.00" timeLoss="75.20" rerouteNo="0" devices="tripinfo_up_39" vType="Bus" speedFactor="1.06" vaporized=""/>
    <tripinfo id="up_28" depart="108.00" departLane="67701598#0_0" departPos="5.10" departSpeed="0.00" departDelay="2.00" arrival="263.00" arrivalLane="338413096_2" arrivalPos="307.50" arrivalSpeed="16.56" duration="155.00" routeLength="779.53" waitingTime="57.00" waitingCount="1" stopTime="0.00" timeLoss="104.02" rerouteNo="0" devices="tripinfo_up_28" vType="Bus" speedFactor="1.15" vaporized=""/>
    <tripinfo id="up_27" depart="103.00" departLane="67701598#0_0" departPos="5.10" departSpeed="0.00" departDelay="0.00" arrival="263.00" arrivalLane="338413096_0" arrivalPos="307.50" arrivalSpeed="15.92" duration="160.00" routeLength="779.53" waitingTime="70.00" waitingCount="1" stopTime="0.00" timeLoss="104.22" rerouteNo="0" devices="tripinfo_up_27" vType="Bus" speedFactor="0.97" vaporized=""/>
    <tripinfo id="left_20" depart="67.00" departLane="319655874#0_0" departPos="5.10" departSpeed="0.00" departDelay="0.00" arrival="264.00" arrivalLane="24252817#1_1" arrivalPos="182.46" arrivalSpeed="16.52" duration="197.00" routeLength="1044.44" waitingTime="90.00" waitingCount="2" stopTime="0.00" timeLoss="133.69" rerouteNo="0" devices="tripinfo_left_20" vType="Bus" speedFactor="1.03" vaporized=""/>
    <tripinfo id="left_16" depart="49.00" departLane="319655874#0_0" departPos="5.10" departSpeed="0.00" departDelay="0.00" arrival="265.00" arrivalLane="24252817#1_0" arrivalPos="182.46" arrivalSpeed="15.57" duration="216.00" routeLength="1044.44" waitingTime="105.00" waitingCount="2" stopTime="0.00" timeLoss="148.93" rerouteNo="0" devices="tripinfo_left_16" vType="Bus" speedFactor="0.94" vaporized=""/>
    <tripinfo id="veh12" depart="44.00" departLane="-432966955_0" departPos="5.10" departSpeed="7.60" departDelay="-0.58" arrival="265.00" arrivalLane="19070397#1_0" arrivalPos="104.52" arrivalSpeed="7.48" duration="221.00" routeLength="795.39" waitingTime="122.00" waitingCount="4" stopTime="0.00" timeLoss="157.75" rerouteNo="1" devices="tripinfo_veh12 routing_veh12" vType="veh_passenger" speedFactor="0.99" vaporized=""/>
    <tripinfo id="left_22" depart="74.00" departLane="319655874#0_0" departPos="5.10" departSpeed="0.00" departDelay="0.00" arrival="265.00" arrivalLane="24252817#1_1" arrivalPos="182.46" arrivalSpeed="16.35" duration="191.00" routeLength="1044.44" waitingTime="86.00" waitingCount="1" stopTime="0.00" timeLoss="128.32" rerouteNo="0" devices="tripinfo_left_22" vType="Bus" speedFactor="1.01" vaporized=""/>
    <tripinfo id="right_25" depart="93.00" departLane="14342450_0" departPos="5.10" departSpeed="0.00" departDelay="1.00" arrival="268.00" arrivalLane="315218164#11_0" arrivalPos="42.74" arrivalSpeed="16.36" duration="175.00" routeLength="1038.95" waitingTime="84.00" waitingCount="1" stopTime="0.00" timeLoss="112.40" rerouteNo="0" devices="tripinfo_right_25" vType="Bus" speedFactor="1.00" vaporized=""/>
    <tripinfo id="veh20" depart="74.00" departLane="330154009#6_0" departPos="5.10" departSpeed="0.00" departDelay="-0.30" arrival="275.00" arrivalLane="24252809#0_1" arrivalPos="93.53" arrivalSpeed="8.03" duration="201.00" routeLength="1161.45" waitingTime="86.00" waitingCount="2" stopTime="0.00" timeLoss="115.08" rerouteNo="1" devices="tripinfo_veh20 routing_veh20" vType="veh_passenger" speedFactor="0.98" vaporized=""/>
    <tripinfo id="veh3" depart="11.00" departLane="33783846#5_1" departPos="5.10" departSpeed="0.00" departDelay="-0.14" arrival="275.00" arrivalLane="19070397#1_0" arrivalPos="104.52" arrivalSpeed="6.40" duration="264.00" routeLength="938.55" waitingTime="139.00" waitingCount="4" stopTime="0.00" timeLoss="173.11" rerouteNo="1" devices="tripinfo_veh3 routing_veh3" vType="veh_passenger" speedFactor="0.83" vaporized=""/>
    <tripinfo id="veh33" depart="122.00" departLane="319802412_0" departPos="5.10" departSpeed="11.33" departDelay="-0.59" arrival="278.00" arrivalLane="24252819#2_0" arrivalPos="133.21" arrivalSpeed="10.08" duration="156.00" routeLength="908.91" waitingTime="64.00" waitingCount="2" stopTime="0.00" timeLoss="83.21" rerouteNo="1" devices="tripinfo_veh33 routing_veh33" vType="veh_passenger" speedFactor="1.02" vaporized=""/>
    <tripinfo id="veh13" depart="48.00" departLane="33783846#0_1" departPos="5.10" departSpeed="10.30" departDelay="-0.29" arrival="281.00" arrivalLane="319802403#5_0" arrivalPos="134.98" arrivalSpeed="9.34" duration="233.00" routeLength="1373.13" waitingTime="99.00" waitingCount="2" stopTime="0.00" timeLoss="119.63" rerouteNo="1" devices="tripinfo_veh13 routing_veh13" vType="veh_passenger" speedFactor="0.93" vaporized=""/>
    <tripinfo id="veh37" depart="137.00" departLane="319655874#8_0" departPos="5.10" departSpeed="0.00" departDelay="-0.45" arrival="281.00" arrivalLane="338413096_0" arrivalPos="307.50" arrivalSpeed="15.01" duration="144.00" routeLength="757.80" waitingTime="71.00" waitingCount="2" stopTime="0.00" timeLoss="91.50" rerouteNo="1" devices="tripinfo_veh37 routing_veh37" vType="veh_passenger" speedFactor="0.90" vaporized=""/>
    <tripinfo id="veh28" depart="104.00" departLane="33783846#0_1" departPos="5.10" departSpeed="13.09" departDelay="-0.01" arrival="284.00" arrivalLane="33783509#2_1" arrivalPos="106.43" arrivalSpeed="12.40" duration="180.00" routeLength="1281.78" waitingTime="57.00" waitingCount="2" stopTime="0.00" timeLoss="98.74" rerouteNo="1" devices="tripinfo_veh28 routing_veh28" vType="veh_passenger" speedFactor="1.18" vaporized=""/>
    <tripinfo id="veh27" depart="100.00" departLane="319655874#0_0" departPos="5.10" departSpeed="15.52" departDelay="-0.30" arrival="285.00" arrivalLane="330154009#4_0" arrivalPos="59.95" arrivalSpeed="9.78" duration="185.00" routeLength="1066.17" waitingTime="81.00" waitingCount="1" stopTime="0.00" timeLoss="102.55" rerouteNo="1" devices="tripinfo_veh27 routing_veh27" vType="veh_passenger" speedFactor="0.93" vaporized=""/>
    <tripinfo id="veh8" depart="29.00" departLane="23843773#0_0" departPos="5.10" departSpeed="12.12" departDelay="-0.72" arrival="287.00" arrivalLane="319802403#5_0" arrivalPos="134.98" arrivalSpeed="11.90" duration="258.00" routeLength="1761.99" waitingTime="94.00" waitingCount="2" stopTime="0.00" timeLoss="130.71" rerouteNo="1" devices="tripinfo_veh8 routing_veh8" vType="veh_passenger" speedFactor="1.09" vaporized=""/>
    <tripinfo id="veh40" depart="148.00" departLane="-432966955_0" departPos="5.10" departSpeed="7.60" departDelay="-0.59" arrival="287.00" arrivalLane="-684280772#1_0" arrivalPos="13.54" arrivalSpeed="10.10" duration="139.00" routeLength="716.53" waitingTime="61.00" waitingCount="1" stopTime="0.00" timeLoss="82.72" rerouteNo="1" devices="tripinfo_veh40 routing_veh40" vType="veh_passenger" speedFactor="1.09" vaporized=""/>
    <tripinfo id="veh47" depart="174.00" departLane="129822384#0_0" departPos="5.10" departSpeed="9.45" departDelay="-0.60" arrival="292.00" arrivalLane="315218164#11_1" arrivalPos="42.74" arrivalSpeed="13.29" duration="118.00" routeLength="758.15" waitingTime="23.00" waitingCount="1" stopTime="0.00" timeLoss="37.81" rerouteNo="1" devices="tripinfo_veh47 routing_veh47" vType="veh_passenger" speedFactor="0.85" vaporized=""/>
    <tripinfo id="veh14" depart="52.00" departLane="319655874#0_1" departPos="5.10" departSpeed="14.64" departDelay="-0.01" arrival="293.00" arrivalLane="432966955_0" arrivalPos="15.80" arrivalSpeed="9.17" duration="241.00" routeLength="1323.84" waitingTime="112.00" waitingCount="3" stopTime="0.00" timeLoss="138.68" rerouteNo="1" devices="tripinfo_veh14 routing_veh14" vType="veh_passenger" speedFactor="0.88" vaporized=""/>
    <tripinfo id="veh16" depart="59.00" departLane="33783846#0_1" departPos="5.10" departSpeed="10.40" departDelay="-0.44" arrival="296.00" arrivalLane="319802403#5_0" arrivalPos="134.98" arrivalSpeed="9.47" duration="237.00" routeLength="1373.13" waitingTime="86.00" waitingCount="3" stopTime="0.00" timeLoss="125.74" rerouteNo="1" devices="tripinfo_veh16 routing_veh16" vType="veh_passenger" speedFactor="0.94" vaporized=""/>
    <tripinfo id="veh31" depart="115.00" departLane="23843773#0_0" departPos="5.10" departSpeed="13.02" departDelay="-0.16" arrival="305.00" arrivalLane="338413096_0" arrivalPos="307.50" arrivalSpeed="18.67" duration="190.00" routeLength="1488.20" waitingTime="52.00" waitingCount="2" stopTime="0.00" timeLoss="82.05" rerouteNo="1" devices="tripinfo_veh31 routing_veh31" vType="veh_passenger" speedFactor="1.17" vaporized=""/>
    <tripinfo id="veh39" depart="144.00" departLane="684280772#0_0" departPos="5.10" departSpeed="0.00" departDelay="-0.88" arrival="308.00" arrivalLane="319655871#2_0" arrivalPos="100.81" arrivalSpeed="7.14" duration="164.00" routeLength="1021.48" waitingTime="41.00" waitingCount="3" stopTime="0.00" timeLoss="86.14" rerouteNo="1" devices="tripinfo_veh39 routing_veh39" vType="veh_passenger" speedFactor="0.96" vaporized=""/>
    <tripinfo id="right_34" depart="126.00" departLane="14342450_0" departPos="5.10" departSpeed="0.00" departDelay="0.00" arrival="309.00" arrivalLane="315218164#11_1" arrivalPos="42.74" arrivalSpeed="8.32" duration="183.00" routeLength="1038.95" waitingTime="79.00" waitingCount="2" stopTime="0.00" timeLoss="120.52" rerouteNo="0" devices="tripinfo_right_34" vType="Bus" speedFactor="1.02" vaporized=""/>
    <tripinfo id="right_29" depart="115.00" departLane="14342450_0" departPos="5.10" departSpeed="0.00" departDelay="0.00" arrival="310.00" arrivalLane="315218164#11_0" arrivalPos="42.74" arrivalSpeed="8.45" duration="195.00" routeLength="1038.95" waitingTime="88.00" waitingCount="2" stopTime="0.00" timeLoss="130.94" rerouteNo="0" devices="tripinfo_right_29" vType="Bus" speedFactor="0.98" vaporized=""/>
    <tripinfo id="down_26" depart="98.00" departLane="315557586#0_0" departPos="5.10" departSpeed="0.00" departDelay="0.00" arrival="310.00" arrivalLane="33783509#2_0" arrivalPos="106.43" arrivalSpeed="10.96" duration="212.00" routeLength="785.70" waitingTime="118.00" waitingCount="2" stopTime="0.00" timeLoss="158.31" rerouteNo="0" devices="tripinfo_down_26" vType="Bus" speedFactor="1.02" vaporized=""/>
    <tripinfo id="veh44" depart="163.00" departLane="67701598#1_0" departPos="5.10" departSpeed="0.00" departDelay="-0.45" arrival="312.00" arrivalLane="319655874#4_0" arrivalPos="41.02" arrivalSpeed="16.41" duration="149.00" routeLength="1039.53" waitingTime="37.00" waitingCount="1" stopTime="0.00" timeLoss="59.74" rerouteNo="1" devices="tripinfo_veh44 routing_veh44" vType="veh_passenger" speedFactor="1.00" vaporized=""/>
    <tripinfo id="right_35" depart="131.00" departLane="14342450_0" departPos="5.10" departSpeed="0.00" departDelay="4.00" arrival="312.00" arrivalLane="315218164#11_0" arrivalPos="42.74" arrivalSpeed="9.21" duration="181.00" routeLength="1038.95" waitingTime="73.00" waitingCount="2" stopTime="0.00" timeLoss="110.79" rerouteNo="0" devices="tripinfo_right_35" vType="Bus" speedFactor="0.89" vaporized=""/>
    <tripinfo id="right_38" depart="136.00" departLane="14342450_0" departPos="5.10" departSpeed="0.00" departDelay="4.00" arrival="312.00" arrivalLane="315218164#11_1" arrivalPos="42.74" arrivalSpeed="9.02" duration="176.00" routeLength="1038.95" waitingTime="67.00" waitingCount="2" stopTime="0.00" timeLoss="113.16" rerouteNo="0" devices="tripinfo_right_38" vType="Bus" speedFactor="1.09" vaporized=""/>
    <tripinfo id="right_44" depart="155.00" departLane="14342450_0" departPos="5.10" departSpeed="0.00" departDelay="3.00" arrival="313.00" arrivalLane="315218164#11_1" arrivalPos="42.74" arrivalSpeed="9.05" duration="158.00" routeLength="1038.95" waitingTime="50.00" waitingCount="2" stopTime="0.00" timeLoss="95.67" rerouteNo="0" devices="tripinfo_right_44" vType="Bus" speedFactor="1.07" vaporized=""/>