<?xml version="1.0" encoding="UTF-8"?>

<!-- generated on 05/28/19 16:06:39 by Eclipse SUMO GUI Version 1.1.0
<configuration xmlns:xsi="http://www.w3.org/2001/XMLSchema-instance" xsi:noNamespaceSchemaLocation="http://sumo.dlr.de/xsd/sumoConfiguration.xsd">

    <input>
        <net-file value="data/osm.net.xml"/>
        <route-files value="data/osm.passenger.trips.xml,data/osm.rou.xml"/>
        <additional-files value="data/osm.poly.xml"/>
    </input>

    <output>
        <tripinfo-output value="tripinfo.xml"/>
    </output>

    <processing>
        <ignore-route-errors value="true"/>
    </processing>

    <routing>
        <device.rerouting.adaptation-steps value="180"/>
    </routing>

    <report>
        <verbose value="true"/>
        <duration-log.statistics value="true"/>
        <no-step-log value="true"/>
    </report>

    <traci_server>
        <remote-port value="50881"/>
    </traci_server>

    <gui_only>
        <gui-settings-file value="data/osm.view.xml"/>
    </gui_only>

</configuration>
-->

<tripinfos xmlns:xsi="http://www.w3.org/2001/XMLSchema-instance" xsi:noNamespaceSchemaLocation="http://sumo.dlr.de/xsd/tripinfo_file.xsd">
    <tripinfo id="veh7" depart="26.00" departLane="319802412_1" departPos="5.10" departSpeed="9.52" departDelay="0.00" arrival="62.00" arrivalLane="319655874#9_1" arrivalPos="102.61" arrivalSpeed="13.07" duration="36.00" routeLength="337.14" waitingTime="0.00" waitingCount="0" stopTime="0.00" timeLoss="3.50" rerouteNo="1" devices="tripinfo_veh7 routing_veh7" vType="veh_passenger" speedFactor="0.86" vaporized=""/>
    <tripinfo id="veh11" depart="40.00" departLane="67701598#0_1" departPos="5.10" departSpeed="12.48" departDelay="-0.86" arrival="75.00" arrivalLane="24252817#1_1" arrivalPos="182.46" arrivalSpeed="17.83" duration="35.00" routeLength="431.10" waitingTime="0.00" waitingCount="0" stopTime="0.00" timeLoss="5.03" rerouteNo="1" devices="tripinfo_veh11 routing_veh11" vType="veh_passenger" speedFactor="1.12" vaporized=""/>
    <tripinfo id="veh1" depart="3.00" departLane="24252105#0_0" departPos="5.10" departSpeed="0.00" departDelay="-0.71" arrival="81.00" arrivalLane="24252105#2_0" arrivalPos="320.39" arrivalSpeed="9.16" duration="78.00" routeLength="545.62" waitingTime="16.00" waitingCount="1" stopTime="0.00" timeLoss="24.97" rerouteNo="1" devices="tripinfo_veh1 routing_veh1" vType="veh_passenger" speedFactor="0.94" vaporized=""/>
    <tripinfo id="veh0" depart="0.00" departLane="319802412_0" departPos="5.10" departSpeed="11.78" departDelay="0.00" arrival="110.00" arrivalLane="-129822384#0_0" arrivalPos="126.97" arrivalSpeed="11.15" duration="110.00" routeLength="842.20" waitingTime="22.00" waitingCount="1" stopTime="0.00" timeLoss="37.77" rerouteNo="1" devices="tripinfo_veh0 routing_veh0" vType="veh_passenger" speedFactor="1.06" vaporized=""/>
    <tripinfo id="veh2" depart="7.00" departLane="33783335#0_0" departPos="5.10" departSpeed="11.45" departDelay="-0.43" arrival="114.00" arrivalLane="330154009#2_0" arrivalPos="99.91" arrivalSpeed="10.87" duration="107.00" routeLength="878.86" waitingTime="16.00" waitingCount="1" stopTime="0.00" timeLoss="31.64" rerouteNo="1" devices="tripinfo_veh2 routing_veh2" vType="veh_passenger" speedFactor="1.03" vaporized=""/>
    <tripinfo id="veh25" depart="92.00" departLane="14342450_0" departPos="5.10" departSpeed="15.51" departDelay="-0.87" arrival="120.00" arrivalLane="33783509#0_0" arrivalPos="51.61" arrivalSpeed="10.40" duration="28.00" routeLength="306.18" waitingTime="0.00" waitingCount="0" stopTime="0.00" timeLoss="5.02" rerouteNo="0" devices="tripinfo_veh25 routing_veh25" vType="veh_passenger" speedFactor="0.95" vaporized=""/>
    <tripinfo id="veh4" depart="14.00" departLane="315557586#0_1" departPos="5.10" departSpeed="17.43" departDelay="-0.86" arrival="125.00" arrivalLane="-129822384#2_0" arrivalPos="43.16" arrivalSpeed="10.77" duration="111.00" routeLength="1243.15" waitingTime="0.00" waitingCount="0" stopTime="0.00" timeLoss="17.54" rerouteNo="1" devices="tripinfo_veh4 routing_veh4" vType="veh_passenger" speedFactor="1.05" vaporized=""/>
    <tripinfo id="veh21" depart="78.00" departLane="319802412_1" departPos="5.10" departSpeed="9.88" departDelay="-0.01" arrival="131.00" arrivalLane="24252817#1_1" arrivalPos="182.46" arrivalSpeed="14.42" duration="53.00" routeLength="553.24" waitingTime="0.00" waitingCount="0" stopTime="0.00" timeLoss="7.24" rerouteNo="1" devices="tripinfo_veh21 routing_veh21" vType="veh_passenger" speedFactor="0.89" vaporized=""/>
    <tripinfo id="up_6" depart="16.00" departLane="67701598#0_0" departPos="5.10" departSpeed="0.00" departDelay="0.00" arrival="132.00" arrivalLane="338413096_0" arrivalPos="307.50" arrivalSpeed="16.47" duration="116.00" routeLength="779.53" waitingTime="30.00" waitingCount="1" stopTime="0.00" timeLoss="62.54" rerouteNo="0" devices="tripinfo_up_6" vType="Bus" speedFactor="1.02" vaporized=""/>
    <tripinfo id="veh6" depart="22.00" departLane="-23804813#2_0" departPos="5.10" departSpeed="10.42" departDelay="-0.29" arrival="134.00" arrivalLane="24252105#2_0" arrivalPos="320.39" arrivalSpeed="9.70" duration="112.00" routeLength="1026.29" waitingTime="0.00" waitingCount="0" stopTime="0.00" timeLoss="11.65" rerouteNo="1" devices="tripinfo_veh6 routing_veh6" vType="veh_passenger" speedFactor="0.94" vaporized=""/>
    <tripinfo id="up_3" depart="4.00" departLane="67701598#0_0" departPos="5.10" departSpeed="0.00" departDelay="0.00" arrival="135.00" arrivalLane="338413096_0" arrivalPos="307.50" arrivalSpeed="16.03" duration="131.00" routeLength="779.53" waitingTime="33.00" waitingCount="2" stopTime="0.00" timeLoss="75.83" rerouteNo="0" devices="tripinfo_up_3" vType="Bus" speedFactor="0.97" vaporized=""/>
    <tripinfo id="veh24" depart="89.00" departLane="319802412_1" departPos="5.10" departSpeed="10.19" departDelay="-0.16" arrival="138.00" arrivalLane="319802403#5_0" arrivalPos="134.98" arrivalSpeed="9.74" duration="49.00" routeLength="445.62" waitingTime="0.00" waitingCount="0" stopTime="0.00" timeLoss="4.32" rerouteNo="1" devices="tripinfo_veh24 routing_veh24" vType="veh_passenger" speedFactor="0.92" vaporized=""/>
    <tripinfo id="left_0" depart="0.00" departLane="319655874#0_0" departPos="5.10" departSpeed="0.00" departDelay="0.00" arrival="145.00" arrivalLane="24252817#1_0" arrivalPos="182.46" arrivalSpeed="16.32" duration="145.00" routeLength="1044.44" waitingTime="39.00" waitingCount="2" stopTime="0.00" timeLoss="82.23" rerouteNo="0" devices="tripinfo_left_0" vType="Bus" speedFactor="1.01" vaporized=""/>
    <tripinfo id="left_1" depart="5.00" departLane="319655874#0_0" departPos="5.10" departSpeed="0.00" departDelay="3.00" arrival="145.00" arrivalLane="24252817#1_1" arrivalPos="182.46" arrivalSpeed="16.53" duration="140.00" routeLength="1044.44" waitingTime="33.00" waitingCount="1" stopTime="0.00" timeLoss="76.55" rerouteNo="0" devices="tripinfo_left_1" vType="Bus" speedFactor="1.08" vaporized=""/>
    <tripinfo id="down_11" depart="31.00" departLane="315557586#0_0" departPos="5.10" departSpeed="0.00" departDelay="0.00" arrival="146.00" arrivalLane="33783509#2_0" arrivalPos="106.43" arrivalSpeed="9.97" duration="115.00" routeLength="785.70" waitingTime="23.00" waitingCount="1" stopTime="0.00" timeLoss="56.76" rerouteNo="0" devices="tripinfo_down_11" vType="Bus" speedFactor="0.91" vaporized=""/>
    <tripinfo id="left_4" depart="10.00" departLane="319655874#0_0" departPos="5.10" departSpeed="0.00" departDelay="0.00" arrival="147.00" arrivalLane="24252817#1_0" arrivalPos="182.46" arrivalSpeed="16.29" duration="137.00" routeLength="1044.44" waitingTime="29.00" waitingCount="1" stopTime="0.00" timeLoss="74.08" rerouteNo="0" devices="tripinfo_left_4" vType="Bus" speedFactor="1.08" vaporized=""/>
    <tripinfo id="veh10" depart="37.00" departLane="24252819#0_0" departPos="5.10" departSpeed="11.63" departDelay="-0.15" arrival="147.00" arrivalLane="23804816#1_0" arrivalPos="341.17" arrivalSpeed="10.83" duration="110.00" routeLength="1029.28" waitingTime="0.00" waitingCount="0" stopTime="0.00" timeLoss="11.38" rerouteNo="1" devices="tripinfo_veh10 routing_veh10" vType="veh_passenger" speedFactor="1.05" vaporized=""/>
    <tripinfo id="left_8" depart="22.00" departLane="319655874#0_0" departPos="5.10" departSpeed="0.00" departDelay="0.00" arrival="148.00" arrivalLane="24252817#1_1" arrivalPos="182.46" arrivalSpeed="15.28" duration="126.00" routeLength="1044.44" waitingTime="14.00" waitingCount="1" stopTime="0.00" timeLoss="58.72" rerouteNo="0" devices="tripinfo_left_8" vType="Bus" speedFactor="0.94" vaporized=""/>
    <tripinfo id="right_2" depart="3.00" departLane="14342450_0" departPos="5.10" departSpeed="0.00" departDelay="0.00" arrival="156.00" arrivalLane="315218164#11_0" arrivalPos="42.74" arrivalSpeed="8.47" duration="153.00" routeLength="1038.95" waitingTime="50.00" waitingCount="2" stopTime="0.00" timeLoss="90.44" rerouteNo="0" devices="tripinfo_right_2" vType="Bus" speedFactor="1.02" vaporized=""/>
    <tripinfo id="veh9" depart="33.00" departLane="33783509#1_1" departPos="5.10" departSpeed="0.00" departDelay="-0.43" arrival="156.00" arrivalLane="-129822384#0_0" arrivalPos="126.97" arrivalSpeed="11.20" duration="123.00" routeLength="1135.17" waitingTime="0.00" waitingCount="0" stopTime="0.00" timeLoss="23.44" rerouteNo="1" devices="tripinfo_veh9 routing_veh9" vType="veh_passenger" speedFactor="1.03" vaporized=""/>
    <tripinfo id="right_5" depart="11.00" departLane="14342450_0" departPos="5.10" departSpeed="0.00" departDelay="0.00" arrival="161.00" arrivalLane="315218164#11_0" arrivalPos="42.74" arrivalSpeed="16.53" duration="150.00" routeLength="1038.95" waitingTime="42.00" waitingCount="2" stopTime="0.00" timeLoss="86.75" rerouteNo="0" devices="tripinfo_right_5" vType="Bus" speedFactor="1.12" vaporized=""/>
    <tripinfo id="veh22" depart="82.00" departLane="315218164#1_1" departPos="5.10" departSpeed="0.00" departDelay="0.27" arrival="161.00" arrivalLane="24252105#2_0" arrivalPos="320.39" arrivalSpeed="8.25" duration="79.00" routeLength="668.16" waitingTime="0.00" waitingCount="0" stopTime="0.00" timeLoss="8.92" rerouteNo="1" devices="tripinfo_veh22 routing_veh22" vType="veh_passenger" speedFactor="0.83" vaporized=""/>
    <tripinfo id="veh19" depart="70.00" departLane="-432966955_0" departPos="5.10" departSpeed="7.60" departDelay="-0.58" arrival="169.00" arrivalLane="24252105#2_0" arrivalPos="320.39" arrivalSpeed="10.16" duration="99.00" routeLength="772.65" waitingTime="11.00" waitingCount="2" stopTime="0.00" timeLoss="32.98" rerouteNo="1" devices="tripinfo_veh19 routing_veh19" vType="veh_passenger" speedFactor="1.01" vaporized=""/>
    <tripinfo id="veh17" depart="63.00" departLane="330172468#0_0" departPos="5.10" departSpeed="12.87" departDelay="-0.15" arrival="173.00" arrivalLane="-684280772#0_0" arrivalPos="79.14" arrivalSpeed="12.78" duration="110.00" routeLength="1006.43" waitingTime="15.00" waitingCount="1" stopTime="0.00" timeLoss="34.26" rerouteNo="1" devices="tripinfo_veh17 routing_veh17" vType="veh_passenger" speedFactor="1.16" vaporized=""/>
    <tripinfo id="veh13" depart="48.00" departLane="33783846#0_1" departPos="5.10" departSpeed="10.30" departDelay="-0.29" arrival="175.00" arrivalLane="319802403#5_0" arrivalPos="134.98" arrivalSpeed="9.69" duration="127.00" routeLength="1373.13" waitingTime="0.00" waitingCount="0" stopTime="0.00" timeLoss="14.22" rerouteNo="1" devices="tripinfo_veh13 routing_veh13" vType="veh_passenger" speedFactor="0.93" vaporized=""/>
    <tripinfo id="left_14" depart="41.00" departLane="319655874#0_0" departPos="5.10" departSpeed="0.00" departDelay="0.00" arrival="178.00" arrivalLane="24252817#1_1" arrivalPos="182.46" arrivalSpeed="16.67" duration="137.00" routeLength="1044.44" waitingTime="27.00" waitingCount="1" stopTime="0.00" timeLoss="73.76" rerouteNo="0" devices="tripinfo_left_14" vType="Bus" speedFactor="1.02" vaporized=""/>
    <tripinfo id="left_20" depart="67.00" departLane="319655874#0_0" departPos="5.10" departSpeed="0.00" departDelay="0.00" arrival="180.00" arrivalLane="24252817#1_1" arrivalPos="182.46" arrivalSpeed="16.57" duration="113.00" routeLength="1044.44" waitingTime="4.00" waitingCount="1" stopTime="0.00" timeLoss="49.53" rerouteNo="0" devices="tripinfo_left_20" vType="Bus" speedFactor="1.03" vaporized=""/>
    <tripinfo id="left_22" depart="74.00" departLane="319655874#0_0" departPos="5.10" departSpeed="0.00" departDelay="0.00" arrival="181.00" arrivalLane="24252817#1_1" arrivalPos="182.46" arrivalSpeed="16.66" duration="107.00" routeLength="1044.44" waitingTime="0.00" waitingCount="0" stopTime="0.00" timeLoss="44.03" rerouteNo="0" devices="tripinfo_left_22" vType="Bus" speedFactor="1.01" vaporized=""/>
    <tripinfo id="down_21" depart="72.00" departLane="315557586#0_0" departPos="5.10" departSpeed="0.00" departDelay="0.00" arrival="183.00" arrivalLane="33783509#2_0" arrivalPos="106.43" arrivalSpeed="10.88" duration="111.00" routeLength="785.70" waitingTime="9.00" waitingCount="2" stopTime="0.00" timeLoss="55.96" rerouteNo="0" devices="tripinfo_down_21" vType="Bus" speedFactor="0.98" vaporized=""/>
    <tripinfo id="down_24" depart="85.00" departLane="315557586#0_0" departPos="5.10" departSpeed="0.00" departDelay="0.00" arrival="183.00" arrivalLane="33783509#2_1" arrivalPos="106.43" arrivalSpeed="11.40" duration="98.00" routeLength="785.70" waitingTime="2.00" waitingCount="1" stopTime="0.00" timeLoss="44.12" rerouteNo="0" devices="tripinfo_down_24" vType="Bus" speedFactor="1.03" vaporized=""/>
    <tripinfo id="left_16" depart="49.00" departLane="319655874#0_0" departPos="5.10" departSpeed="0.00" departDelay="0.00" arrival="188.00" arrivalLane="24252817#1_0" arrivalPos="182.46" arrivalSpeed="15.29" duration="139.00" routeLength="1044.44" waitingTime="20.00" waitingCount="1" stopTime="0.00" timeLoss="72.18" rerouteNo="0" devices="tripinfo_left_16" vType="Bus" speedFactor="0.94" vaporized=""/>
    <tripinfo id="veh3" depart="11.00" departLane="33783846#5_1" departPos="5.10" departSpeed="0.00" departDelay="-0.14" arrival="188.00" arrivalLane="19070397#1_0" arrivalPos="104.52" arrivalSpeed="6.52" duration="177.00" routeLength="938.55" waitingTime="51.00" waitingCount="3" stopTime="0.00" timeLoss="85.94" rerouteNo="1" devices="tripinfo_veh3 routing_veh3" vType="veh_passenger" speedFactor="0.83" vaporized=""/>
    <tripinfo id="veh12" depart="44.00" departLane="-432966955_0" departPos="5.10" departSpeed="7.60" departDelay="-0.58" arrival="190.00" arrivalLane="19070397#1_0" arrivalPos="104.52" arrivalSpeed="7.51" duration="146.00" routeLength="795.39" waitingTime="40.00" waitingCount="3" stopTime="0.00" timeLoss="82.34" rerouteNo="1" devices="tripinfo_veh12 routing_veh12" vType="veh_passenger" speedFactor="0.99" vaporized=""/>
    <tripinfo id="right_9" depart="27.00" departLane="14342450_0" departPos="5.10" departSpeed="0.00" departDelay="2.00" arrival="196.00" arrivalLane="315218164#11_1" arrivalPos="42.74" arrivalSpeed="8.18" duration="169.00" routeLength="1038.95" waitingTime="34.00" waitingCount="3" stopTime="0.00" timeLoss="98.14" rerouteNo="0" devices="tripinfo_right_9" vType="Bus" speedFactor="0.88" vaporized=""/>
    <tripinfo id="right_7" depart="22.00" departLane="14342450_0" departPos="5.10" departSpeed="0.00" departDelay="0.00" arrival="196.00" arrivalLane="315218164#11_0" arrivalPos="42.74" arrivalSpeed="8.51" duration="174.00" routeLength="1038.95" waitingTime="42.00" waitingCount="3" stopTime="0.00" timeLoss="110.79" rerouteNo="0" devices="tripinfo_right_7" vType="Bus" speedFactor="0.99" vaporized=""/>
    <tripinfo id="veh15" depart="55.00" departLane="33783846#0_1" departPos="5.10" departSpeed="10.46" departDelay="-0.72" arrival="197.00" arrivalLane="330154009#1_0" arrivalPos="97.72" arrivalSpeed="9.42" duration="142.00" routeLength="1241.80" waitingTime="13.00" waitingCount="1" stopTime="0.00" timeLoss="46.01" rerouteNo="1" devices="tripinfo_veh15 routing_veh15" vType="veh_passenger" speedFactor="0.94" vaporized=""/>
    <tripinfo id="up_28" depart="108.00" departLane="67701598#0_0" departPos="5.10" departSpeed="0.00" departDelay="2.00" arrival="197.00" arrivalLane="338413096_1" arrivalPos="307.50" arrivalSpeed="16.45" duration="89.00" routeLength="779.53" waitingTime="12.00" waitingCount="1" stopTime="0.00" timeLoss="37.51" rerouteNo="0" devices="tripinfo_up_28" vType="Bus" speedFactor="1.15" vaporized=""/>
    <tripinfo id="right_10" depart="32.00" departLane="14342450_0" departPos="5.10" departSpeed="0.00" departDelay="1.00" arrival="198.00" arrivalLane="315218164#11_0" arrivalPos="42.74" arrivalSpeed="8.94" duration="166.00" routeLength="1038.95" waitingTime="30.00" waitingCount="3" stopTime="0.00" timeLoss="97.22" rerouteNo="0" devices="tripinfo_right_10" vType="Bus" speedFactor="0.91" vaporized=""/>
    <tripinfo id="right_12" depart="37.00" departLane="14342450_0" departPos="5.10" departSpeed="0.00" departDelay="3.00" arrival="199.00" arrivalLane="315218164#11_1" arrivalPos="42.74" arrivalSpeed="8.65" duration="162.00" routeLength="1038.95" waitingTime="25.00" waitingCount="3" stopTime="0.00" timeLoss="99.37" rerouteNo="0" devices="tripinfo_right_12" vType="Bus" speedFactor="1.04" vaporized=""/>
    <tripinfo id="veh5" depart="18.00" departLane="23843773#0_0" departPos="5.10" departSpeed="9.84" departDelay="-0.57" arrival="200.00" arrivalLane="315557586#1_0" arrivalPos="29.68" arrivalSpeed="11.06" duration="182.00" routeLength="1490.08" waitingTime="2.00" waitingCount="1" stopTime="0.00" timeLoss="28.36" rerouteNo="1" devices="tripinfo_veh5 routing_veh5" vType="veh_passenger" speedFactor="0.89" vaporized=""/>
    <tripinfo id="right_15" depart="47.00" departLane="14342450_0" departPos="5.10" departSpeed="0.00" departDelay="3.00" arrival="201.00" arrivalLane="315218164#11_1" arrivalPos="42.74" arrivalSpeed="9.31" duration="154.00" routeLength="1038.95" waitingTime="15.00" waitingCount="1" stopTime="0.00" timeLoss="89.55" rerouteNo="0" devices="tripinfo_right_15" vType="Bus" speedFactor="0.97" vaporized=""/>
    <tripinfo id="right_13" depart="42.00" departLane="14342450_0" departPos="5.10" departSpeed="0.00" departDelay="2.00" arrival="201.00" arrivalLane="315218164#11_0" arrivalPos="42.74" arrivalSpeed="8.99" duration="159.00" routeLength="1038.95" waitingTime="21.00" waitingCount="2" stopTime="0.00" timeLoss="96.57" rerouteNo="0" devices="tripinfo_right_13" vType="Bus" speedFactor="1.02" vaporized=""/>
    <tripinfo id="veh8" depart="29.00" departLane="23843773#0_0" departPos="5.10" departSpeed="12.12" departDelay="-0.72" arrival="201.00" arrivalLane="319802403#5_0" arrivalPos="134.98" arrivalSpeed="11.71" duration="172.00" routeLength="1761.99" waitingTime="11.00" waitingCount="1" stopTime="0.00" timeLoss="44.10" rerouteNo="1" devices="tripinfo_veh8 routing_veh8" vType="veh_passenger" speedFactor="1.09" vaporized=""/>
    <tripinfo id="veh27" depart="100.00" departLane="319655874#0_0" departPos="5.10" departSpeed="15.52" departDelay="-0.30" arrival="203.00" arrivalLane="330154009#4_0" arrivalPos="59.95" arrivalSpeed="9.07" duration="103.00" routeLength="1066.17" waitingTime="6.00" waitingCount="1" stopTime="0.00" timeLoss="21.66" rerouteNo="1" devices="tripinfo_veh27 routing_veh27" vType="veh_passenger" speedFactor="0.93" vaporized=""/>
    <tripinfo id="right_18" depart="63.00" departLane="14342450_0" departPos="5.10" departSpeed="0.00" departDelay="0.00" arrival="203.00" arrivalLane="315218164#11_1" arrivalPos="42.74" arrivalSpeed="9.60" duration="140.00" routeLength="1038.95" waitingTime="0.00" waitingCount="0" stopTime="0.00" timeLoss="74.28" rerouteNo="0" devices="tripinfo_right_18" vType="Bus" speedFactor="0.96" vaporized=""/>
    <tripinfo id="right_17" depart="56.00" departLane="14342450_0" departPos="5.10" departSpeed="0.00" departDelay="0.00" arrival="203.00" arrivalLane="315218164#11_0" arrivalPos="42.74" arrivalSpeed="9.89" duration="147.00" routeLength="1038.95" waitingTime="9.00" waitingCount="2" stopTime="0.00" timeLoss="84.45" rerouteNo="0" devices="tripinfo_right_17" vType="Bus" speedFactor="1.06" vaporized=""/>
    <tripinfo id="right_23" depart="81.00" departLane="14342450_0" departPos="5.10" departSpeed="0.00" departDelay="0.00" arrival="205.00" arrivalLane="315218164#11_1" arrivalPos="42.74" arrivalSpeed="10.41" duration="124.00" routeLength="1038.95" waitingTime="0.00" waitingCount="0" stopTime="0.00" timeLoss="61.29" rerouteNo="0" devices="tripinfo_right_23" vType="Bus" speedFactor="1.09" vaporized=""/>
    <tripinfo id="right_19" depart="68.00" departLane="14342450_0" departPos="5.10" departSpeed="0.00" departDelay="4.00" arrival="205.00" arrivalLane="315218164#11_0" arrivalPos="42.74" arrivalSpeed="10.19" duration="137.00" routeLength="1038.95" waitingTime="0.00" waitingCount="0" stopTime="0.00" timeLoss="73.35" rerouteNo="0" devices="tripinfo_right_19" vType="Bus" speedFactor="0.98" vaporized=""/>
    <tripinfo id="right_29" depart="115.00" departLane="14342450_0" departPos="5.10" departSpeed="0.00" departDelay="0.00" arrival="207.00" arrivalLane="315218164#11_1" arrivalPos="42.74" arrivalSpeed="11.14" duration="92.00" routeLength="1038.95" waitingTime="0.00" waitingCount="0" stopTime="0.00" timeLoss="27.67" rerouteNo="0" devices="tripinfo_right_29" vType="Bus" speedFactor="0.98" vaporized=""/>
    <tripinfo id="veh34" depart="126.00" departLane="670322549#0_0" departPos="5.10" departSpeed="8.11" departDelay="-0.30" arrival="207.00" arrivalLane="315218164#11_0" arrivalPos="42.74" arrivalSpeed="14.16" duration="81.00" routeLength="642.37" waitingTime="10.00" waitingCount="1" stopTime="0.00" timeLoss="26.90" rerouteNo="1" devices="tripinfo_veh34 routing_veh34" vType="veh_passenger" speedFactor="0.97" vaporized=""/>
    <tripinfo id="veh16" depart="59.00" departLane="33783846#0_1" departPos="5.10" departSpeed="10.40" departDelay="-0.44" arrival="207.00" arrivalLane="319802403#5_0" arrivalPos="134.98" arrivalSpeed="9.69" duration="148.00" routeLength="1373.13" waitingTime="11.00" waitingCount="2" stopTime="0.00" timeLoss="36.51" rerouteNo="1" devices="tripinfo_veh16 routing_veh16" vType="veh_passenger" speedFactor="0.94" vaporized=""/>
    <tripinfo id="veh29" depart="107.00" departLane="23843773#0_0" departPos="5.10" departSpeed="12.83" departDelay="-0.73" arrival="208.00" arrivalLane="-129822384#4_0" arrivalPos="43.86" arrivalSpeed="12.07" duration="101.00" routeLength="1100.05" waitingTime="5.00" waitingCount="1" stopTime="0.00" timeLoss="22.96" rerouteNo="1" devices="tripinfo_veh29 routing_veh29" vType="veh_passenger" speedFactor="1.15" vaporized=""/>
    <tripinfo id="right_25" depart="93.00" departLane="14342450_0" departPos="5.10" departSpeed="0.00" departDelay="1.00" arrival="209.00" arrivalLane="315218164#11_1" arrivalPos="42.74" arrivalSpeed="11.40" duration="116.00" routeLength="1038.95" waitingTime="3.00" waitingCount="1" stopTime="0.00" timeLoss="53.03" rerouteNo="0" devices="tripinfo_right_25" vType="Bus" speedFactor="1.00" vaporized=""/>
    <tripinfo id="veh33" depart="122.00" departLane="319802412_0" departPos="5.10" departSpeed="11.33" departDelay="-0.59" arrival="211.00" arrivalLane="24252819#2_0" arrivalPos="133.21" arrivalSpeed="10.38" duration="89.00" routeLength="908.91" waitingTime="0.00" waitingCount="0" stopTime="0.00" timeLoss="15.64" rerouteNo="1" devices="tripinfo_veh33 routing_veh33" vType="veh_passenger" speedFactor="1.02" vaporized=""/>
    <tripinfo id="veh37" depart="141.00" departLane="319655874#8_0" departPos="5.10" departSpeed="0.00" departDelay="3.55" arrival="216.00" arrivalLane="338413096_1" arrivalPos="307.50" arrivalSpeed="13.80" duration="75.00" routeLength="757.80" waitingTime="1.00" waitingCount="1" stopTime="0.00" timeLoss="22.93" rerouteNo="1" devices="tripinfo_veh37 routing_veh37" vType="veh_passenger" speedFactor="0.90" vaporized=""/>
    <tripinfo id="veh20" depart="74.00" departLane="330154009#6_0" departPos="5.10" departSpeed="0.00" departDelay="-0.30" arrival="217.00" arrivalLane="24252809#0_0" arrivalPos="93.53" arrivalSpeed="7.59" duration="143.00" routeLength="1161.45" waitingTime="13.00" waitingCount="4" stopTime="0.00" timeLoss="57.19" rerouteNo="1" devices="tripinfo_veh20 routing_veh20" vType="veh_passenger" speedFactor="0.98" vaporized=""/>
    <tripinfo id="up_27" depart="103.00" departLane="67701598#0_0" departPos="5.10" departSpeed="0.00" departDelay="0.00" arrival="220.00" arrivalLane="338413096_0" arrivalPos="307.50" arrivalSpeed="16.01" duration="117.00" routeLength="779.53" waitingTime="22.00" waitingCount="2" stopTime="0.00" timeLoss="61.52" rerouteNo="0" devices="tripinfo_up_27" vType="Bus" speedFactor="0.97" vaporized=""/>
    <tripinfo id="veh26" depart="96.00" departLane="67701598#0_0" departPos="5.10" departSpeed="12.57" departDelay="-0.59" arrival="221.00" arrivalLane="330154009#10_0" arrivalPos="110.67" arrivalSpeed="11.65" duration="125.00" routeLength="1177.46" waitingTime="6.00" waitingCount="2" stopTime="0.00" timeLoss="33.62" rerouteNo="1" devices="tripinfo_veh26 routing_veh26" vType="veh_passenger" speedFactor="1.13" vaporized=""/>
    <tripinfo id="down_37" depart="129.00" departLane="315557586#0_0" departPos="5.10" departSpeed="0.00" departDelay="0.00" arrival="221.00" arrivalLane="33783509#2_1" arrivalPos="106.43" arrivalSpeed="10.05" duration="92.00" routeLength="785.70" waitingTime="3.00" waitingCount="1" stopTime="0.00" timeLoss="33.57" rerouteNo="0" devices="tripinfo_down_37" vType="Bus" speedFactor="0.92" vaporized=""/>
    <tripinfo id="veh41" depart="152.00" departLane="129822384#0_0" departPos="5.10" departSpeed="11.53" departDelay="-0.31" arrival="222.00" arrivalLane="330154009#10_1" arrivalPos="110.67" arrivalSpeed="11.07" duration="70.00" routeLength="708.79" waitingTime="0.00" waitingCount="0" stopTime="0.00" timeLoss="7.75" rerouteNo="1" devices="tripinfo_veh41 routing_veh41" vType="veh_passenger" speedFactor="1.04" vaporized=""/>
    <tripinfo id="down_26" depart="98.00" departLane="315557586#0_0" departPos="5.10" departSpeed="0.00" departDelay="0.00" arrival="226.00" arrivalLane="33783509#2_0" arrivalPos="106.43" arrivalSpeed="11.23" duration="128.00" routeLength="785.70" waitingTime="26.00" waitingCount="2" stopTime="0.00" timeLoss="73.74" rerouteNo="0" devices="tripinfo_down_26" vType="Bus" speedFactor="1.02" vaporized=""/>
    <tripinfo id="right_35" depart="131.00" departLane="14342450_0" departPos="5.10" departSpeed="0.00" departDelay="4.00" arrival="229.00" arrivalLane="315218164#11_0" arrivalPos="42.74" arrivalSpeed="8.49" duration="98.00" routeLength="1038.95" waitingTime="0.00" waitingCount="0" stopTime="0.00" timeLoss="28.04" rerouteNo="0" devices="tripinfo_right_35" vType="Bus" speedFactor="0.89" vaporized=""/>
    <tripinfo id="right_38" depart="136.00" departLane="14342450_0" departPos="5.10" departSpeed="0.00" departDelay="4.00" arrival="230.00" arrivalLane="315218164#11_0" arrivalPos="42.74" arrivalSpeed="8.12" duration="94.00" routeLength="1038.95" waitingTime="3.00" waitingCount="1" stopTime="0.00" timeLoss="31.58" rerouteNo="0" devices="tripinfo_right_38" vType="Bus" speedFactor="1.09" vaporized=""/>
    <tripinfo id="veh14" depart="52.00" departLane="319655874#0_1" departPos="5.10" departSpeed="14.64" departDelay="-0.01" arrival="231.00" arrivalLane="432966955_0" arrivalPos="15.80" arrivalSpeed="8.79" duration="179.00" routeLength="1323.84" waitingTime="37.00" waitingCount="4" stopTime="0.00" timeLoss="75.72" rerouteNo="1" devices="tripinfo_veh14 routing_veh14" vType="veh_passenger" speedFactor="0.88" vaporized=""/>
    <tripinfo id="veh42" depart="156.00" departLane="33783335#1_1" departPos="5.10" departSpeed="0.00" departDelay="-0.02" arrival="232.00" arrivalLane="315218164#11_1" arrivalPos="42.74" arrivalSpeed="15.04" duration="76.00" routeLength="760.72" waitingTime="11.00" waitingCount="1" stopTime="0.00" timeLoss="24.97" rerouteNo="1" devices="tripinfo_veh42 routing_veh42" vType="veh_passenger" speedFactor="1.04" vaporized=""/>
    <tripinfo id="left_33" depart="132.00" departLane="319655874#0_0" departPos="5.10" departSpeed="0.00" departDelay="7.00" arrival="233.00" arrivalLane="24252817#1_1" arrivalPos="182.46" arrivalSpeed="15.76" duration="101.00" routeLength="1044.44" waitingTime="3.00" waitingCount="1" stopTime="0.00" timeLoss="37.80" rerouteNo="0" devices="tripinfo_left_33" vType="Bus" speedFactor="1.02" vaporized=""/>
    <tripinfo id="left_31" depart="122.00" departLane="319655874#0_0" departPos="5.10" departSpeed="0.00" departDelay="2.00" arrival="234.00" arrivalLane="24252817#1_0" arrivalPos="182.46" arrivalSpeed="16.56" duration="112.00" routeLength="1044.44" waitingTime="7.00" waitingCount="2" stopTime="0.00" timeLoss="49.04" rerouteNo="0" devices="tripinfo_left_31" vType="Bus" speedFactor="1.04" vaporized=""/>
    <tripinfo id="left_30" depart="117.00" departLane="319655874#0_0" departPos="5.10" departSpeed="0.00" departDelay="0.00" arrival="236.00" arrivalLane="24252817#1_0" arrivalPos="182.46" arrivalSpeed="16.44" duration="119.00" routeLength="1044.44" waitingTime="9.00" waitingCount="2" stopTime="0.00" timeLoss="56.31" rerouteNo="0" devices="tripinfo_left_30" vType="Bus" speedFactor="1.00" vaporized=""/>
    <tripinfo id="left_32" depart="127.00" departLane="319655874#0_0" departPos="5.10" departSpeed="0.00" departDelay="4.00" arrival="236.00" arrivalLane="24252817#1_1" arrivalPos="182.46" arrivalSpeed="16.29" duration="109.00" routeLength="1044.44" waitingTime="2.00" waitingCount="1" stopTime="0.00" timeLoss="45.59" rerouteNo="0" devices="tripinfo_left_32" vType="Bus" speedFactor="1.01" vaporized=""/>