<?xml version="1.0" encoding="UTF-8"?>

<!-- generated on 06/02/19 19:19:34 by Eclipse SUMO GUI Version 1.1.0
<configuration xmlns:xsi="http://www.w3.org/2001/XMLSchema-instance" xsi:noNamespaceSchemaLocation="http://sumo.dlr.de/xsd/sumoConfiguration.xsd">

    <input>
        <net-file value="data/osm.net.xml"/>
        <route-files value="data/osm.passenger.trips.xml,data/osm.rou.xml"/>
        <additional-files value="data/osm.poly.xml"/>
    </input>

    <output>
        <tripinfo-output value="tripinfo.xml"/>
    </output>

    <processing>
        <ignore-route-errors value="true"/>
    </processing>

    <routing>
        <device.rerouting.adaptation-steps value="180"/>
    </routing>

    <report>
        <verbose value="true"/>
        <duration-log.statistics value="true"/>
        <no-step-log value="true"/>
    </report>

    <traci_server>
        <remote-port value="61720"/>
    </traci_server>

    <gui_only>
        <gui-settings-file value="data/osm.view.xml"/>
    </gui_only>

</configuration>
-->

<tripinfos xmlns:xsi="http://www.w3.org/2001/XMLSchema-instance" xsi:noNamespaceSchemaLocation="http://sumo.dlr.de/xsd/tripinfo_file.xsd">
    <tripinfo id="veh7" depart="26.00" departLane="319802412_1" departPos="5.10" departSpeed="9.52" departDelay="0.00" arrival="62.00" arrivalLane="319655874#9_1" arrivalPos="102.61" arrivalSpeed="13.07" duration="36.00" routeLength="337.14" waitingTime="0.00" waitingCount="0" stopTime="0.00" timeLoss="3.50" rerouteNo="1" devices="tripinfo_veh7 routing_veh7" vType="veh_passenger" speedFactor="0.86" vaporized=""/>
    <tripinfo id="veh11" depart="40.00" departLane="67701598#0_1" departPos="5.10" departSpeed="12.48" departDelay="-0.86" arrival="75.00" arrivalLane="24252817#1_1" arrivalPos="182.46" arrivalSpeed="17.83" duration="35.00" routeLength="431.10" waitingTime="0.00" waitingCount="0" stopTime="0.00" timeLoss="5.03" rerouteNo="1" devices="tripinfo_veh11 routing_veh11" vType="veh_passenger" speedFactor="1.12" vaporized=""/>
    <tripinfo id="veh1" depart="3.00" departLane="24252105#0_0" departPos="5.10" departSpeed="0.00" departDelay="-0.71" arrival="81.00" arrivalLane="24252105#2_0" arrivalPos="320.39" arrivalSpeed="9.16" duration="78.00" routeLength="545.62" waitingTime="16.00" waitingCount="1" stopTime="0.00" timeLoss="24.97" rerouteNo="1" devices="tripinfo_veh1 routing_veh1" vType="veh_passenger" speedFactor="0.94" vaporized=""/>
    <tripinfo id="veh0" depart="0.00" departLane="319802412_0" departPos="5.10" departSpeed="11.78" departDelay="0.00" arrival="110.00" arrivalLane="-129822384#0_0" arrivalPos="126.97" arrivalSpeed="11.15" duration="110.00" routeLength="842.20" waitingTime="22.00" waitingCount="1" stopTime="0.00" timeLoss="37.58" rerouteNo="1" devices="tripinfo_veh0 routing_veh0" vType="veh_passenger" speedFactor="1.06" vaporized=""/>
    <tripinfo id="veh2" depart="7.00" departLane="33783335#0_0" departPos="5.10" departSpeed="11.45" departDelay="-0.43" arrival="114.00" arrivalLane="330154009#2_0" arrivalPos="99.91" arrivalSpeed="10.94" duration="107.00" routeLength="878.86" waitingTime="16.00" waitingCount="1" stopTime="0.00" timeLoss="31.41" rerouteNo="1" devices="tripinfo_veh2 routing_veh2" vType="veh_passenger" speedFactor="1.03" vaporized=""/>
    <tripinfo id="veh25" depart="92.00" departLane="14342450_0" departPos="5.10" departSpeed="15.51" departDelay="-0.87" arrival="120.00" arrivalLane="33783509#0_0" arrivalPos="51.61" arrivalSpeed="9.99" duration="28.00" routeLength="306.18" waitingTime="0.00" waitingCount="0" stopTime="0.00" timeLoss="5.08" rerouteNo="0" devices="tripinfo_veh25 routing_veh25" vType="veh_passenger" speedFactor="0.95" vaporized=""/>
    <tripinfo id="veh4" depart="14.00" departLane="315557586#0_1" departPos="5.10" departSpeed="17.43" departDelay="-0.86" arrival="125.00" arrivalLane="-129822384#2_0" arrivalPos="43.16" arrivalSpeed="10.77" duration="111.00" routeLength="1243.15" waitingTime="0.00" waitingCount="0" stopTime="0.00" timeLoss="18.12" rerouteNo="1" devices="tripinfo_veh4 routing_veh4" vType="veh_passenger" speedFactor="1.05" vaporized=""/>
    <tripinfo id="up_6" depart="16.00" departLane="67701598#0_0" departPos="5.10" departSpeed="0.00" departDelay="0.00" arrival="129.00" arrivalLane="338413096_1" arrivalPos="307.50" arrivalSpeed="16.43" duration="113.00" routeLength="779.53" waitingTime="30.00" waitingCount="1" stopTime="0.00" timeLoss="59.70" rerouteNo="0" devices="tripinfo_up_6" vType="Bus" speedFactor="1.02" vaporized=""/>
    <tripinfo id="up_3" depart="4.00" departLane="67701598#0_0" departPos="5.10" departSpeed="0.00" departDelay="0.00" arrival="130.00" arrivalLane="338413096_0" arrivalPos="307.50" arrivalSpeed="15.93" duration="126.00" routeLength="779.53" waitingTime="33.00" waitingCount="2" stopTime="0.00" timeLoss="69.98" rerouteNo="0" devices="tripinfo_up_3" vType="Bus" speedFactor="0.97" vaporized=""/>
    <tripinfo id="left_1" depart="5.00" departLane="319655874#0_0" departPos="5.10" departSpeed="0.00" departDelay="3.00" arrival="131.00" arrivalLane="24252817#1_1" arrivalPos="182.46" arrivalSpeed="16.49" duration="126.00" routeLength="1044.44" waitingTime="33.00" waitingCount="1" stopTime="0.00" timeLoss="63.07" rerouteNo="0" devices="tripinfo_left_1" vType="Bus" speedFactor="1.08" vaporized=""/>
    <tripinfo id="left_0" depart="0.00" departLane="319655874#0_0" departPos="5.10" departSpeed="0.00" departDelay="0.00" arrival="131.00" arrivalLane="24252817#1_0" arrivalPos="182.46" arrivalSpeed="16.43" duration="131.00" routeLength="1044.44" waitingTime="38.00" waitingCount="1" stopTime="0.00" timeLoss="67.65" rerouteNo="0" devices="tripinfo_left_0" vType="Bus" speedFactor="1.01" vaporized=""/>
    <tripinfo id="left_4" depart="10.00" departLane="319655874#0_0" departPos="5.10" departSpeed="0.00" departDelay="0.00" arrival="132.00" arrivalLane="24252817#1_0" arrivalPos="182.46" arrivalSpeed="16.38" duration="122.00" routeLength="1044.44" waitingTime="29.00" waitingCount="1" stopTime="0.00" timeLoss="59.21" rerouteNo="0" devices="tripinfo_left_4" vType="Bus" speedFactor="1.08" vaporized=""/>
    <tripinfo id="veh6" depart="22.00" departLane="-23804813#2_0" departPos="5.10" departSpeed="10.42" departDelay="-0.29" arrival="133.00" arrivalLane="24252105#2_0" arrivalPos="320.39" arrivalSpeed="9.29" duration="111.00" routeLength="1026.29" waitingTime="0.00" waitingCount="0" stopTime="0.00" timeLoss="11.33" rerouteNo="1" devices="tripinfo_veh6 routing_veh6" vType="veh_passenger" speedFactor="0.94" vaporized=""/>
    <tripinfo id="left_8" depart="22.00" departLane="319655874#0_0" departPos="5.10" departSpeed="0.00" departDelay="0.00" arrival="134.00" arrivalLane="24252817#1_1" arrivalPos="182.46" arrivalSpeed="15.26" duration="112.00" routeLength="1044.44" waitingTime="14.00" waitingCount="1" stopTime="0.00" timeLoss="44.48" rerouteNo="0" devices="tripinfo_left_8" vType="Bus" speedFactor="0.94" vaporized=""/>
    <tripinfo id="right_2" depart="3.00" departLane="14342450_0" departPos="5.10" departSpeed="0.00" departDelay="0.00" arrival="135.00" arrivalLane="315218164#11_0" arrivalPos="42.74" arrivalSpeed="16.49" duration="132.00" routeLength="1038.95" waitingTime="41.00" waitingCount="1" stopTime="0.00" timeLoss="69.15" rerouteNo="0" devices="tripinfo_right_2" vType="Bus" speedFactor="1.02" vaporized=""/>
    <tripinfo id="veh24" depart="89.00" departLane="319802412_1" departPos="5.10" departSpeed="10.19" departDelay="-0.16" arrival="138.00" arrivalLane="319802403#5_0" arrivalPos="134.98" arrivalSpeed="9.61" duration="49.00" routeLength="445.62" waitingTime="0.00" waitingCount="0" stopTime="0.00" timeLoss="4.08" rerouteNo="1" devices="tripinfo_veh24 routing_veh24" vType="veh_passenger" speedFactor="0.92" vaporized=""/>
    <tripinfo id="veh10" depart="37.00" departLane="24252819#0_0" departPos="5.10" departSpeed="11.63" departDelay="-0.15" arrival="147.00" arrivalLane="23804816#1_0" arrivalPos="341.17" arrivalSpeed="10.83" duration="110.00" routeLength="1029.28" waitingTime="0.00" waitingCount="0" stopTime="0.00" timeLoss="11.57" rerouteNo="1" devices="tripinfo_veh10 routing_veh10" vType="veh_passenger" speedFactor="1.05" vaporized=""/>
    <tripinfo id="veh9" depart="33.00" departLane="33783509#1_1" departPos="5.10" departSpeed="0.00" departDelay="-0.43" arrival="155.00" arrivalLane="-129822384#0_0" arrivalPos="126.97" arrivalSpeed="11.11" duration="122.00" routeLength="1135.17" waitingTime="0.00" waitingCount="0" stopTime="0.00" timeLoss="22.13" rerouteNo="1" devices="tripinfo_veh9 routing_veh9" vType="veh_passenger" speedFactor="1.03" vaporized=""/>
    <tripinfo id="down_21" depart="72.00" departLane="315557586#0_0" departPos="5.10" departSpeed="0.00" departDelay="0.00" arrival="167.00" arrivalLane="33783509#2_1" arrivalPos="106.43" arrivalSpeed="10.59" duration="95.00" routeLength="785.70" waitingTime="13.00" waitingCount="1" stopTime="0.00" timeLoss="40.16" rerouteNo="0" devices="tripinfo_down_21" vType="Bus" speedFactor="0.98" vaporized=""/>
    <tripinfo id="down_11" depart="31.00" departLane="315557586#0_0" departPos="5.10" departSpeed="0.00" departDelay="0.00" arrival="168.00" arrivalLane="33783509#2_0" arrivalPos="106.43" arrivalSpeed="9.98" duration="137.00" routeLength="785.70" waitingTime="38.00" waitingCount="2" stopTime="0.00" timeLoss="78.41" rerouteNo="0" devices="tripinfo_down_11" vType="Bus" speedFactor="0.91" vaporized=""/>
    <tripinfo id="veh19" depart="70.00" departLane="-432966955_0" departPos="5.10" departSpeed="7.60" departDelay="-0.58" arrival="169.00" arrivalLane="24252105#2_0" arrivalPos="320.39" arrivalSpeed="10.14" duration="99.00" routeLength="772.65" waitingTime="12.00" waitingCount="2" stopTime="0.00" timeLoss="32.98" rerouteNo="1" devices="tripinfo_veh19 routing_veh19" vType="veh_passenger" speedFactor="1.01" vaporized=""/>
    <tripinfo id="down_24" depart="85.00" departLane="315557586#0_0" departPos="5.10" departSpeed="0.00" departDelay="0.00" arrival="170.00" arrivalLane="33783509#2_0" arrivalPos="106.43" arrivalSpeed="11.17" duration="85.00" routeLength="785.70" waitingTime="1.00" waitingCount="1" stopTime="0.00" timeLoss="31.18" rerouteNo="0" devices="tripinfo_down_24" vType="Bus" speedFactor="1.03" vaporized=""/>
    <tripinfo id="veh17" depart="63.00" departLane="330172468#0_0" departPos="5.10" departSpeed="12.87" departDelay="-0.15" arrival="173.00" arrivalLane="-684280772#0_0" arrivalPos="79.14" arrivalSpeed="11.60" duration="110.00" routeLength="1006.43" waitingTime="15.00" waitingCount="1" stopTime="0.00" timeLoss="34.24" rerouteNo="1" devices="tripinfo_veh17 routing_veh17" vType="veh_passenger" speedFactor="1.16" vaporized=""/>
    <tripinfo id="veh22" depart="82.00" departLane="315218164#1_1" departPos="5.10" departSpeed="0.00" departDelay="0.27" arrival="176.00" arrivalLane="24252105#2_0" arrivalPos="320.39" arrivalSpeed="9.01" duration="94.00" routeLength="668.16" waitingTime="10.00" waitingCount="1" stopTime="0.00" timeLoss="23.68" rerouteNo="1" devices="tripinfo_veh22 routing_veh22" vType="veh_passenger" speedFactor="0.83" vaporized=""/>
    <tripinfo id="right_12" depart="37.00" departLane="14342450_0" departPos="5.10" departSpeed="0.00" departDelay="3.00" arrival="193.00" arrivalLane="315218164#11_1" arrivalPos="42.74" arrivalSpeed="8.14" duration="156.00" routeLength="1038.95" waitingTime="50.00" waitingCount="2" stopTime="0.00" timeLoss="93.60" rerouteNo="0" devices="tripinfo_right_12" vType="Bus" speedFactor="1.04" vaporized=""/>
    <tripinfo id="right_5" depart="11.00" departLane="14342450_0" departPos="5.10" departSpeed="0.00" departDelay="0.00" arrival="193.00" arrivalLane="315218164#11_0" arrivalPos="42.74" arrivalSpeed="8.13" duration="182.00" routeLength="1038.95" waitingTime="77.00" waitingCount="2" stopTime="0.00" timeLoss="119.64" rerouteNo="0" devices="tripinfo_right_5" vType="Bus" speedFactor="1.12" vaporized=""/>
    <tripinfo id="veh29" depart="107.00" departLane="23843773#0_0" departPos="5.10" departSpeed="12.83" departDelay="-0.73" arrival="194.00" arrivalLane="-129822384#4_0" arrivalPos="43.86" arrivalSpeed="11.61" duration="87.00" routeLength="1100.05" waitingTime="0.00" waitingCount="0" stopTime="0.00" timeLoss="8.86" rerouteNo="1" devices="tripinfo_veh29 routing_veh29" vType="veh_passenger" speedFactor="1.15" vaporized=""/>
    <tripinfo id="right_15" depart="47.00" departLane="14342450_0" departPos="5.10" departSpeed="0.00" departDelay="3.00" arrival="196.00" arrivalLane="315218164#11_1" arrivalPos="42.74" arrivalSpeed="9.11" duration="149.00" routeLength="1038.95" waitingTime="41.00" waitingCount="2" stopTime="0.00" timeLoss="84.53" rerouteNo="0" devices="tripinfo_right_15" vType="Bus" speedFactor="0.97" vaporized=""/>
    <tripinfo id="right_7" depart="22.00" departLane="14342450_0" departPos="5.10" departSpeed="0.00" departDelay="0.00" arrival="196.00" arrivalLane="315218164#11_0" arrivalPos="42.74" arrivalSpeed="8.65" duration="174.00" routeLength="1038.95" waitingTime="67.00" waitingCount="2" stopTime="0.00" timeLoss="110.72" rerouteNo="0" devices="tripinfo_right_7" vType="Bus" speedFactor="0.99" vaporized=""/>
    <tripinfo id="right_18" depart="63.00" departLane="14342450_0" departPos="5.10" departSpeed="0.00" departDelay="0.00" arrival="198.00" arrivalLane="315218164#11_1" arrivalPos="42.74" arrivalSpeed="9.59" duration="135.00" routeLength="1038.95" waitingTime="26.00" waitingCount="1" stopTime="0.00" timeLoss="69.59" rerouteNo="0" devices="tripinfo_right_18" vType="Bus" speedFactor="0.96" vaporized=""/>
    <tripinfo id="right_9" depart="27.00" departLane="14342450_0" departPos="5.10" departSpeed="0.00" departDelay="2.00" arrival="198.00" arrivalLane="315218164#11_0" arrivalPos="42.74" arrivalSpeed="9.39" duration="171.00" routeLength="1038.95" waitingTime="60.00" waitingCount="2" stopTime="0.00" timeLoss="100.26" rerouteNo="0" devices="tripinfo_right_9" vType="Bus" speedFactor="0.88" vaporized=""/>
    <tripinfo id="veh21" depart="78.00" departLane="319802412_1" departPos="5.10" departSpeed="9.88" departDelay="-0.01" arrival="198.00" arrivalLane="24252817#1_0" arrivalPos="182.46" arrivalSpeed="14.69" duration="120.00" routeLength="553.24" waitingTime="59.00" waitingCount="2" stopTime="0.00" timeLoss="73.74" rerouteNo="1" devices="tripinfo_veh21 routing_veh21" vType="veh_passenger" speedFactor="0.89" vaporized=""/>
    <tripinfo id="right_23" depart="81.00" departLane="14342450_0" departPos="5.10" departSpeed="0.00" departDelay="0.00" arrival="200.00" arrivalLane="315218164#11_1" arrivalPos="42.74" arrivalSpeed="9.98" duration="119.00" routeLength="1038.95" waitingTime="25.00" waitingCount="1" stopTime="0.00" timeLoss="56.56" rerouteNo="0" devices="tripinfo_right_23" vType="Bus" speedFactor="1.09" vaporized=""/>
    <tripinfo id="right_10" depart="32.00" departLane="14342450_0" departPos="5.10" departSpeed="0.00" departDelay="1.00" arrival="200.00" arrivalLane="315218164#11_0" arrivalPos="42.74" arrivalSpeed="9.62" duration="168.00" routeLength="1038.95" waitingTime="56.00" waitingCount="2" stopTime="0.00" timeLoss="99.12" rerouteNo="0" devices="tripinfo_right_10" vType="Bus" speedFactor="0.91" vaporized=""/>
    <tripinfo id="right_17" depart="56.00" departLane="14342450_0" departPos="5.10" departSpeed="0.00" departDelay="0.00" arrival="202.00" arrivalLane="315218164#11_1" arrivalPos="42.74" arrivalSpeed="9.62" duration="146.00" routeLength="1038.95" waitingTime="31.00" waitingCount="2" stopTime="0.00" timeLoss="83.59" rerouteNo="0" devices="tripinfo_right_17" vType="Bus" speedFactor="1.06" vaporized=""/>
    <tripinfo id="right_13" depart="42.00" departLane="14342450_0" departPos="5.10" departSpeed="0.00" departDelay="2.00" arrival="202.00" arrivalLane="315218164#11_0" arrivalPos="42.74" arrivalSpeed="10.13" duration="160.00" routeLength="1038.95" waitingTime="48.00" waitingCount="2" stopTime="0.00" timeLoss="97.59" rerouteNo="0" devices="tripinfo_right_13" vType="Bus" speedFactor="1.02" vaporized=""/>
    <tripinfo id="veh34" depart="126.00" departLane="670322549#0_0" departPos="5.10" departSpeed="8.11" departDelay="-0.30" arrival="204.00" arrivalLane="315218164#11_1" arrivalPos="42.74" arrivalSpeed="12.28" duration="78.00" routeLength="642.37" waitingTime="0.00" waitingCount="0" stopTime="0.00" timeLoss="24.00" rerouteNo="1" devices="tripinfo_veh34 routing_veh34" vType="veh_passenger" speedFactor="0.97" vaporized=""/>
    <tripinfo id="right_19" depart="68.00" departLane="14342450_0" departPos="5.10" departSpeed="0.00" departDelay="4.00" arrival="204.00" arrivalLane="315218164#11_0" arrivalPos="42.74" arrivalSpeed="10.60" duration="136.00" routeLength="1038.95" waitingTime="27.00" waitingCount="1" stopTime="0.00" timeLoss="72.55" rerouteNo="0" devices="tripinfo_right_19" vType="Bus" speedFactor="0.98" vaporized=""/>
    <tripinfo id="left_14" depart="41.00" departLane="319655874#0_0" departPos="5.10" departSpeed="0.00" departDelay="0.00" arrival="213.00" arrivalLane="24252817#1_1" arrivalPos="182.46" arrivalSpeed="16.32" duration="172.00" routeLength="1044.44" waitingTime="64.00" waitingCount="2" stopTime="0.00" timeLoss="108.95" rerouteNo="0" devices="tripinfo_left_14" vType="Bus" speedFactor="1.02" vaporized=""/>
    <tripinfo id="left_20" depart="67.00" departLane="319655874#0_0" departPos="5.10" departSpeed="0.00" departDelay="0.00" arrival="219.00" arrivalLane="24252817#1_0" arrivalPos="182.46" arrivalSpeed="16.35" duration="152.00" routeLength="1044.44" waitingTime="47.00" waitingCount="2" stopTime="0.00" timeLoss="89.19" rerouteNo="0" devices="tripinfo_left_20" vType="Bus" speedFactor="1.03" vaporized=""/>
    <tripinfo id="up_28" depart="108.00" departLane="67701598#0_0" departPos="5.10" departSpeed="0.00" departDelay="2.00" arrival="219.00" arrivalLane="338413096_1" arrivalPos="307.50" arrivalSpeed="16.40" duration="111.00" routeLength="779.53" waitingTime="16.00" waitingCount="2" stopTime="0.00" timeLoss="60.32" rerouteNo="0" devices="tripinfo_up_28" vType="Bus" speedFactor="1.15" vaporized=""/>
    <tripinfo id="up_27" depart="103.00" departLane="67701598#0_0" departPos="5.10" departSpeed="0.00" departDelay="0.00" arrival="220.00" arrivalLane="338413096_0" arrivalPos="307.50" arrivalSpeed="15.79" duration="117.00" routeLength="779.53" waitingTime="32.00" waitingCount="1" stopTime="0.00" timeLoss="61.55" rerouteNo="0" devices="tripinfo_up_27" vType="Bus" speedFactor="0.97" vaporized=""/>
    <tripinfo id="left_16" depart="49.00" departLane="319655874#0_0" departPos="5.10" departSpeed="0.00" departDelay="0.00" arrival="221.00" arrivalLane="24252817#1_0" arrivalPos="182.46" arrivalSpeed="15.34" duration="172.00" routeLength="1044.44" waitingTime="60.00" waitingCount="2" stopTime="0.00" timeLoss="104.91" rerouteNo="0" devices="tripinfo_left_16" vType="Bus" speedFactor="0.94" vaporized=""/>
    <tripinfo id="up_39" depart="135.00" departLane="67701598#0_0" departPos="5.10" departSpeed="0.00" departDelay="0.00" arrival="221.00" arrivalLane="338413096_1" arrivalPos="307.50" arrivalSpeed="16.33" duration="86.00" routeLength="779.53" waitingTime="2.00" waitingCount="1" stopTime="0.00" timeLoss="33.19" rerouteNo="0" devices="tripinfo_up_39" vType="Bus" speedFactor="1.06" vaporized=""/>
    <tripinfo id="left_22" depart="74.00" departLane="319655874#0_0" departPos="5.10" departSpeed="0.00" departDelay="0.00" arrival="222.00" arrivalLane="24252817#1_1" arrivalPos="182.46" arrivalSpeed="16.53" duration="148.00" routeLength="1044.44" waitingTime="42.00" waitingCount="1" stopTime="0.00" timeLoss="84.67" rerouteNo="0" devices="tripinfo_left_22" vType="Bus" speedFactor="1.01" vaporized=""/>
    <tripinfo id="veh41" depart="152.00" departLane="129822384#0_0" departPos="5.10" departSpeed="11.53" departDelay="-0.31" arrival="224.00" arrivalLane="330154009#10_0" arrivalPos="110.67" arrivalSpeed="10.34" duration="72.00" routeLength="708.79" waitingTime="0.00" waitingCount="0" stopTime="0.00" timeLoss="9.67" rerouteNo="1" devices="tripinfo_veh41 routing_veh41" vType="veh_passenger" speedFactor="1.04" vaporized=""/>
    <tripinfo id="right_25" depart="93.00" departLane="14342450_0" departPos="5.10" departSpeed="0.00" departDelay="1.00" arrival="226.00" arrivalLane="315218164#11_0" arrivalPos="42.74" arrivalSpeed="16.49" duration="133.00" routeLength="1038.95" waitingTime="41.00" waitingCount="1" stopTime="0.00" timeLoss="70.42" rerouteNo="0" devices="tripinfo_right_25" vType="Bus" speedFactor="1.00" vaporized=""/>
    <tripinfo id="veh13" depart="48.00" departLane="33783846#0_1" departPos="5.10" departSpeed="10.30" departDelay="-0.29" arrival="231.00" arrivalLane="319802403#5_0" arrivalPos="134.98" arrivalSpeed="9.67" duration="183.00" routeLength="1373.13" waitingTime="51.00" waitingCount="2" stopTime="0.00" timeLoss="70.54" rerouteNo="1" devices="tripinfo_veh13 routing_veh13" vType="veh_passenger" speedFactor="0.93" vaporized=""/>
    <tripinfo id="veh3" depart="11.00" departLane="33783846#5_1" departPos="5.10" departSpeed="0.00" departDelay="-0.14" arrival="231.00" arrivalLane="19070397#1_0" arrivalPos="104.52" arrivalSpeed="6.85" duration="220.00" routeLength="938.55" waitingTime="95.00" waitingCount="4" stopTime="0.00" timeLoss="129.73" rerouteNo="1" devices="tripinfo_veh3 routing_veh3" vType="veh_passenger" speedFactor="0.83" vaporized=""/>
    <tripinfo id="veh20" depart="74.00" departLane="330154009#6_0" departPos="5.10" departSpeed="0.00" departDelay="-0.30" arrival="232.00" arrivalLane="24252809#0_1" arrivalPos="93.53" arrivalSpeed="8.88" duration="158.00" routeLength="1161.45" waitingTime="43.00" waitingCount="2" stopTime="0.00" timeLoss="72.39" rerouteNo="1" devices="tripinfo_veh20 routing_veh20" vType="veh_passenger" speedFactor="0.98" vaporized=""/>
    <tripinfo id="veh12" depart="44.00" departLane="-432966955_0" departPos="5.10" departSpeed="7.60" departDelay="-0.58" arrival="234.00" arrivalLane="19070397#1_0" arrivalPos="104.52" arrivalSpeed="7.27" duration="190.00" routeLength="795.39" waitingTime="78.00" waitingCount="4" stopTime="0.00" timeLoss="126.69" rerouteNo="1" devices="tripinfo_veh12 routing_veh12" vType="veh_passenger" speedFactor="0.99" vaporized=""/>
    <tripinfo id="veh33" depart="122.00" departLane="319802412_0" departPos="5.10" departSpeed="11.33" departDelay="-0.59" arrival="235.00" arrivalLane="24252819#2_0" arrivalPos="133.21" arrivalSpeed="10.84" duration="113.00" routeLength="908.91" waitingTime="22.00" waitingCount="2" stopTime="0.00" timeLoss="40.36" rerouteNo="1" devices="tripinfo_veh33 routing_veh33" vType="veh_passenger" speedFactor="1.02" vaporized=""/>
    <tripinfo id="veh37" depart="137.00" departLane="319655874#8_0" departPos="5.10" departSpeed="0.00" departDelay="-0.45" arrival="238.00" arrivalLane="338413096_0" arrivalPos="307.50" arrivalSpeed="14.37" duration="101.00" routeLength="757.80" waitingTime="27.00" waitingCount="2" stopTime="0.00" timeLoss="49.56" rerouteNo="1" devices="tripinfo_veh37 routing_veh37" vType="veh_passenger" speedFactor="0.90" vaporized=""/>
    <tripinfo id="veh27" depart="100.00" departLane="319655874#0_0" departPos="5.10" departSpeed="15.52" departDelay="-0.30" arrival="241.00" arrivalLane="330154009#4_0" arrivalPos="59.95" arrivalSpeed="9.33" duration="141.00" routeLength="1066.17" waitingTime="38.00" waitingCount="1" stopTime="0.00" timeLoss="59.61" rerouteNo="1" devices="tripinfo_veh27 routing_veh27" vType="veh_passenger" speedFactor="0.93" vaporized=""/>
    <tripinfo id="veh40" depart="148.00" departLane="-432966955_0" departPos="5.10" departSpeed="7.60" departDelay="-0.59" arrival="241.00" arrivalLane="-684280772#1_0" arrivalPos="13.54" arrivalSpeed="10.61" duration="93.00" routeLength="716.53" waitingTime="18.00" waitingCount="1" stopTime="0.00" timeLoss="36.37" rerouteNo="1" devices="tripinfo_veh40 routing_veh40" vType="veh_passenger" speedFactor="1.09" vaporized=""/>
    <tripinfo id="veh14" depart="52.00" departLane="319655874#0_1" departPos="5.10" departSpeed="14.64" departDelay="-0.01" arrival="246.00" arrivalLane="432966955_0" arrivalPos="15.80" arrivalSpeed="8.94" duration="194.00" routeLength="1323.84" waitingTime="67.00" waitingCount="2" stopTime="0.00" timeLoss="91.18" rerouteNo="1" devices="tripinfo_veh14 routing_veh14" vType="veh_passenger" speedFactor="0.88" vaporized=""/>
    <tripinfo id="veh28" depart="104.00" departLane="33783846#0_1" departPos="5.10" departSpeed="13.09" departDelay="-0.01" arrival="247.00" arrivalLane="33783509#2_1" arrivalPos="106.43" arrivalSpeed="12.63" duration="143.00" routeLength="1281.78" waitingTime="16.00" waitingCount="3" stopTime="0.00" timeLoss="61.65" rerouteNo="1" devices="tripinfo_veh28 routing_veh28" vType="veh_passenger" speedFactor="1.18" vaporized=""/>
    <tripinfo id="veh8" depart="29.00" departLane="23843773#0_0" departPos="5.10" departSpeed="12.12" departDelay="-0.72" arrival="251.00" arrivalLane="319802403#5_0" arrivalPos="134.98" arrivalSpeed="11.89" duration="222.00" routeLength="1761.99" waitingTime="55.00" waitingCount="3" stopTime="0.00" timeLoss="95.24" rerouteNo="1" devices="tripinfo_veh8 routing_veh8" vType="veh_passenger" speedFactor="1.09" vaporized=""/>
    <tripinfo id="veh31" depart="115.00" departLane="23843773#0_0" departPos="5.10" departSpeed="13.02" departDelay="-0.16" arrival="253.00" arrivalLane="338413096_0" arrivalPos="307.50" arrivalSpeed="19.42" duration="138.00" routeLength="1488.20" waitingTime="10.00" waitingCount="1" stopTime="0.00" timeLoss="30.73" rerouteNo="1" devices="tripinfo_veh31 routing_veh31" vType="veh_passenger" speedFactor="1.17" vaporized=""/>
    <tripinfo id="veh36" depart="133.00" departLane="319655874#1_0" departPos="4.67" departSpeed="0.00" departDelay="-0.73" arrival="255.00" arrivalLane="24252105#2_0" arrivalPos="320.39" arrivalSpeed="11.25" duration="122.00" routeLength="1138.84" waitingTime="15.00" waitingCount="1" stopTime="0.00" timeLoss="43.45" rerouteNo="1" devices="tripinfo_veh36 routing_veh36" vType="veh_passenger" speedFactor="1.10" vaporized=""/>
    <tripinfo id="down_42" depart="149.00" departLane="315557586#0_0" departPos="5.10" departSpeed="0.00" departDelay="0.00" arrival="257.00" arrivalLane="33783509#2_1" arrivalPos="106.43" arrivalSpeed="12.32" duration="108.00" routeLength="785.70" waitingTime="18.00" waitingCount="1" stopTime="0.00" timeLoss="55.87" rerouteNo="0" devices="tripinfo_down_42" vType="Bus" speedFactor="1.12" vaporized=""/>
    <tripinfo id="down_26" depart="98.00" departLane="315557586#0_0" departPos="5.10" departSpeed="0.00" departDelay="0.00" arrival="258.00" arrivalLane="33783509#2_0" arrivalPos="106.43" arrivalSpeed="11.22" duration="160.00" routeLength="785.70" waitingTime="64.00" waitingCount="2" stopTime="0.00" timeLoss="106.23" rerouteNo="0" devices="tripinfo_down_26" vType="Bus" speedFactor="1.02" vaporized=""/>
    <tripinfo id="veh16" depart="59.00" departLane="33783846#0_1" departPos="5.10" departSpeed="10.40" departDelay="-0.44" arrival="258.00" arrivalLane="319802403#5_0" arrivalPos="134.98" arrivalSpeed="10.26" duration="199.00" routeLength="1373.13" waitingTime="45.00" waitingCount="4" stopTime="0.00" timeLoss="87.98" rerouteNo="1" devices="tripinfo_veh16 routing_veh16" vType="veh_passenger" speedFactor="0.94" vaporized=""/>
    <tripinfo id="veh35" depart="130.00" departLane="23843773#4_0" departPos="5.10" departSpeed="0.00" departDelay="-0.02" arrival="258.00" arrivalLane="24252105#2_0" arrivalPos="320.39" arrivalSpeed="12.65" duration="128.00" routeLength="1244.92" waitingTime="2.00" waitingCount="1" stopTime="0.00" timeLoss="47.22" rerouteNo="1" devices="tripinfo_veh35 routing_veh35" vType="veh_passenger" speedFactor="1.18" vaporized=""/>
    <tripinfo id="down_37" depart="129.00" departLane="315557586#0_0" departPos="5.10" departSpeed="0.00" departDelay="0.00" arrival="261.00" arrivalLane="33783509#2_0" arrivalPos="106.43" arrivalSpeed="9.93" duration="132.00" routeLength="785.70" waitingTime="32.00" waitingCount="2" stopTime="0.00" timeLoss="73.63" rerouteNo="0" devices="tripinfo_down_37" vType="Bus" speedFactor="0.92" vaporized=""/>
    <tripinfo id="veh44" depart="163.00" departLane="67701598#1_0" departPos="5.10" departSpeed="0.00" departDelay="-0.45" arrival="269.00" arrivalLane="319655874#4_0" arrivalPos="41.02" arrivalSpeed="15.63" duration="106.00" routeLength="1039.53" waitingTime="0.00" waitingCount="0" stopTime="0.00" timeLoss="17.58" rerouteNo="1" devices="tripinfo_veh44 routing_veh44" vType="veh_passenger" speedFactor="1.00" vaporized=""/>
    <tripinfo id="veh46" depart="170.00" departLane="-23804813#2_0" departPos="5.10" departSpeed="9.74" departDelay="-0.88" arrival="269.00" arrivalLane="33783335#2_1" arrivalPos="48.60" arrivalSpeed="9.69" duration="99.00" routeLength="690.49" waitingTime="15.00" waitingCount="1" stopTime="0.00" timeLoss="26.42" rerouteNo="1" devices="tripinfo_veh46 routing_veh46" vType="veh_passenger" speedFactor="0.88" vaporized=""/>
    <tripinfo id="veh39" depart="144.00" departLane="684280772#0_0" departPos="5.10" departSpeed="0.00" departDelay="-0.88" arrival="280.00" arrivalLane="319655871#2_0" arrivalPos="100.81" arrivalSpeed="15.83" duration="136.00" routeLength="1021.48" waitingTime="43.00" waitingCount="1" stopTime="0.00" timeLoss="58.97" rerouteNo="1" devices="tripinfo_veh39 routing_veh39" vType="veh_passenger" speedFactor="0.96" vaporized=""/>
    <tripinfo id="right_29" depart="115.00" departLane="14342450_0" departPos="5.10" departSpeed="0.00" departDelay="0.00" arrival="283.00" arrivalLane="315218164#11_0" arrivalPos="42.74" arrivalSpeed="8.71" duration="168.00" routeLength="1038.95" waitingTime="63.00" waitingCount="2" stopTime="0.00" timeLoss="104.04" rerouteNo="0" devices="tripinfo_right_29" vType="Bus" speedFactor="0.98" vaporized=""/>