<?xml version="1.0" encoding="UTF-8"?>

<!-- generated on Mon Jun 17 01:37:10 2019 by Eclipse SUMO Version 1.2.0
<configuration xmlns:xsi="http://www.w3.org/2001/XMLSchema-instance" xsi:noNamespaceSchemaLocation="http://sumo.dlr.de/xsd/sumoConfiguration.xsd">

    <input>
        <net-file value="data/osm.net.xml"/>
        <route-files value="data/osm.passenger.trips.xml,data/osm.rou.xml"/>
        <additional-files value="data/osm.poly.xml"/>
    </input>

    <output>
        <tripinfo-output value="tripinfo.xml"/>
    </output>

    <processing>
        <ignore-route-errors value="true"/>
    </processing>

    <routing>
        <device.rerouting.adaptation-steps value="180"/>
    </routing>

    <report>
        <verbose value="true"/>
        <duration-log.statistics value="true"/>
        <no-step-log value="true"/>
    </report>

    <traci_server>
        <remote-port value="63312"/>
    </traci_server>

    <gui_only>
        <gui-settings-file value="data/osm.view.xml"/>
    </gui_only>

</configuration>
-->

<tripinfos xmlns:xsi="http://www.w3.org/2001/XMLSchema-instance" xsi:noNamespaceSchemaLocation="http://sumo.dlr.de/xsd/tripinfo_file.xsd">
    <tripinfo id="veh7" depart="26.00" departLane="319802412_1" departPos="5.10" departSpeed="9.52" departDelay="0.00" arrival="62.00" arrivalLane="319655874#9_1" arrivalPos="102.61" arrivalSpeed="13.37" duration="36.00" routeLength="337.14" waitingTime="0.00" waitingCount="0" stopTime="0.00" timeLoss="3.45" rerouteNo="1" devices="tripinfo_veh7 routing_veh7" vType="veh_passenger" speedFactor="0.86" vaporized=""/>
    <tripinfo id="veh11" depart="40.00" departLane="67701598#0_1" departPos="5.10" departSpeed="12.48" departDelay="-0.86" arrival="75.00" arrivalLane="24252817#1_1" arrivalPos="182.46" arrivalSpeed="17.66" duration="35.00" routeLength="431.10" waitingTime="0.00" waitingCount="0" stopTime="0.00" timeLoss="5.27" rerouteNo="1" devices="tripinfo_veh11 routing_veh11" vType="veh_passenger" speedFactor="1.12" vaporized=""/>
    <tripinfo id="veh1" depart="3.00" departLane="24252105#0_0" departPos="5.10" departSpeed="0.00" departDelay="-0.71" arrival="81.00" arrivalLane="24252105#2_0" arrivalPos="320.39" arrivalSpeed="9.69" duration="78.00" routeLength="545.62" waitingTime="15.00" waitingCount="1" stopTime="0.00" timeLoss="24.75" rerouteNo="1" devices="tripinfo_veh1 routing_veh1" vType="veh_passenger" speedFactor="0.94" vaporized=""/>
    <tripinfo id="veh0" depart="0.00" departLane="319802412_0" departPos="5.10" departSpeed="11.78" departDelay="0.00" arrival="108.00" arrivalLane="-129822384#0_0" arrivalPos="126.97" arrivalSpeed="11.42" duration="108.00" routeLength="842.20" waitingTime="24.00" waitingCount="1" stopTime="0.00" timeLoss="34.66" rerouteNo="1" devices="tripinfo_veh0 routing_veh0" vType="veh_passenger" speedFactor="1.06" vaporized=""/>
    <tripinfo id="veh2" depart="7.00" departLane="33783335#0_0" departPos="5.10" departSpeed="11.45" departDelay="-0.43" arrival="114.00" arrivalLane="330154009#2_0" arrivalPos="99.91" arrivalSpeed="10.44" duration="107.00" routeLength="878.86" waitingTime="15.00" waitingCount="1" stopTime="0.00" timeLoss="31.50" rerouteNo="1" devices="tripinfo_veh2 routing_veh2" vType="veh_passenger" speedFactor="1.03" vaporized=""/>
    <tripinfo id="veh25" depart="92.00" departLane="14342450_0" departPos="5.10" departSpeed="15.21" departDelay="-0.87" arrival="119.00" arrivalLane="33783509#0_0" arrivalPos="51.61" arrivalSpeed="10.02" duration="27.00" routeLength="306.18" waitingTime="0.00" waitingCount="0" stopTime="0.00" timeLoss="4.79" rerouteNo="0" devices="tripinfo_veh25 routing_veh25" vType="veh_passenger" speedFactor="0.95" vaporized=""/>
    <tripinfo id="veh4" depart="14.00" departLane="315557586#0_1" departPos="5.10" departSpeed="17.43" departDelay="-0.86" arrival="126.00" arrivalLane="-129822384#2_0" arrivalPos="43.16" arrivalSpeed="10.62" duration="112.00" routeLength="1243.15" waitingTime="0.00" waitingCount="0" stopTime="0.00" timeLoss="18.37" rerouteNo="1" devices="tripinfo_veh4 routing_veh4" vType="veh_passenger" speedFactor="1.05" vaporized=""/>
    <tripinfo id="up_6" depart="16.00" departLane="67701598#0_0" departPos="5.10" departSpeed="0.00" departDelay="0.00" arrival="129.00" arrivalLane="338413096_0" arrivalPos="307.50" arrivalSpeed="16.41" duration="113.00" routeLength="779.53" waitingTime="33.00" waitingCount="1" stopTime="0.00" timeLoss="59.56" rerouteNo="0" devices="tripinfo_up_6" vType="Bus" speedFactor="1.02" vaporized=""/>
    <tripinfo id="left_0" depart="0.00" departLane="319655874#0_0" departPos="5.10" departSpeed="0.00" departDelay="0.00" arrival="130.00" arrivalLane="24252817#1_0" arrivalPos="182.46" arrivalSpeed="16.31" duration="130.00" routeLength="1044.44" waitingTime="37.00" waitingCount="1" stopTime="0.00" timeLoss="66.54" rerouteNo="0" devices="tripinfo_left_0" vType="Bus" speedFactor="1.01" vaporized=""/>
    <tripinfo id="up_3" depart="4.00" departLane="67701598#0_0" departPos="5.10" departSpeed="0.00" departDelay="0.00" arrival="130.00" arrivalLane="338413096_0" arrivalPos="307.50" arrivalSpeed="15.96" duration="126.00" routeLength="779.53" waitingTime="29.00" waitingCount="2" stopTime="0.00" timeLoss="70.64" rerouteNo="0" devices="tripinfo_up_3" vType="Bus" speedFactor="0.97" vaporized=""/>
    <tripinfo id="left_1" depart="5.00" departLane="319655874#0_0" departPos="5.10" departSpeed="0.00" departDelay="3.00" arrival="131.00" arrivalLane="24252817#1_1" arrivalPos="182.46" arrivalSpeed="16.41" duration="126.00" routeLength="1044.44" waitingTime="31.00" waitingCount="1" stopTime="0.00" timeLoss="62.88" rerouteNo="0" devices="tripinfo_left_1" vType="Bus" speedFactor="1.08" vaporized=""/>
    <tripinfo id="left_4" depart="10.00" departLane="319655874#0_0" departPos="5.10" departSpeed="0.00" departDelay="0.00" arrival="131.00" arrivalLane="24252817#1_0" arrivalPos="182.46" arrivalSpeed="16.52" duration="121.00" routeLength="1044.44" waitingTime="30.00" waitingCount="1" stopTime="0.00" timeLoss="58.24" rerouteNo="0" devices="tripinfo_left_4" vType="Bus" speedFactor="1.08" vaporized=""/>
    <tripinfo id="veh6" depart="22.00" departLane="-23804813#2_0" departPos="5.10" departSpeed="10.42" departDelay="-0.29" arrival="132.00" arrivalLane="24252105#2_0" arrivalPos="320.39" arrivalSpeed="10.22" duration="110.00" routeLength="1026.29" waitingTime="0.00" waitingCount="0" stopTime="0.00" timeLoss="10.13" rerouteNo="1" devices="tripinfo_veh6 routing_veh6" vType="veh_passenger" speedFactor="0.94" vaporized=""/>
    <tripinfo id="left_8" depart="22.00" departLane="319655874#0_0" departPos="5.10" departSpeed="0.00" departDelay="0.00" arrival="134.00" arrivalLane="24252817#1_1" arrivalPos="182.46" arrivalSpeed="15.44" duration="112.00" routeLength="1044.44" waitingTime="15.00" waitingCount="1" stopTime="0.00" timeLoss="44.35" rerouteNo="0" devices="tripinfo_left_8" vType="Bus" speedFactor="0.94" vaporized=""/>
    <tripinfo id="right_2" depart="3.00" departLane="14342450_0" departPos="5.10" departSpeed="0.00" departDelay="0.00" arrival="136.00" arrivalLane="315218164#11_0" arrivalPos="42.74" arrivalSpeed="16.40" duration="133.00" routeLength="1038.95" waitingTime="39.00" waitingCount="1" stopTime="0.00" timeLoss="69.97" rerouteNo="0" devices="tripinfo_right_2" vType="Bus" speedFactor="1.02" vaporized=""/>
    <tripinfo id="veh24" depart="89.00" departLane="319802412_1" departPos="5.10" departSpeed="10.19" departDelay="-0.16" arrival="139.00" arrivalLane="319802403#5_0" arrivalPos="134.98" arrivalSpeed="9.90" duration="50.00" routeLength="445.62" waitingTime="0.00" waitingCount="0" stopTime="0.00" timeLoss="4.91" rerouteNo="1" devices="tripinfo_veh24 routing_veh24" vType="veh_passenger" speedFactor="0.92" vaporized=""/>
    <tripinfo id="veh10" depart="37.00" departLane="24252819#0_0" departPos="5.10" departSpeed="11.63" departDelay="-0.15" arrival="146.00" arrivalLane="23804816#1_0" arrivalPos="341.17" arrivalSpeed="10.87" duration="109.00" routeLength="1029.28" waitingTime="0.00" waitingCount="0" stopTime="0.00" timeLoss="10.34" rerouteNo="1" devices="tripinfo_veh10 routing_veh10" vType="veh_passenger" speedFactor="1.05" vaporized=""/>
    <tripinfo id="veh9" depart="33.00" departLane="33783509#1_1" departPos="5.10" departSpeed="0.00" departDelay="-0.43" arrival="164.00" arrivalLane="-129822384#0_0" arrivalPos="126.97" arrivalSpeed="11.02" duration="131.00" routeLength="1147.01" waitingTime="1.00" waitingCount="1" stopTime="0.00" timeLoss="31.64" rerouteNo="1" devices="tripinfo_veh9 routing_veh9" vType="veh_passenger" speedFactor="1.03" vaporized=""/>
    <tripinfo id="veh19" depart="70.00" departLane="-432966955_0" departPos="5.10" departSpeed="7.60" departDelay="-0.58" arrival="169.00" arrivalLane="24252105#2_0" arrivalPos="320.39" arrivalSpeed="10.46" duration="99.00" routeLength="772.65" waitingTime="7.00" waitingCount="2" stopTime="0.00" timeLoss="32.42" rerouteNo="1" devices="tripinfo_veh19 routing_veh19" vType="veh_passenger" speedFactor="1.01" vaporized=""/>
    <tripinfo id="down_11" depart="31.00" departLane="315557586#0_0" departPos="5.10" departSpeed="0.00" departDelay="0.00" arrival="169.00" arrivalLane="33783509#2_0" arrivalPos="106.43" arrivalSpeed="10.10" duration="138.00" routeLength="785.70" waitingTime="39.00" waitingCount="2" stopTime="0.00" timeLoss="79.67" rerouteNo="0" devices="tripinfo_down_11" vType="Bus" speedFactor="0.91" vaporized=""/>
    <tripinfo id="down_21" depart="72.00" departLane="315557586#0_0" departPos="5.10" departSpeed="0.00" departDelay="0.00" arrival="170.00" arrivalLane="33783509#2_0" arrivalPos="106.43" arrivalSpeed="10.85" duration="98.00" routeLength="785.70" waitingTime="14.00" waitingCount="1" stopTime="0.00" timeLoss="42.51" rerouteNo="0" devices="tripinfo_down_21" vType="Bus" speedFactor="0.98" vaporized=""/>
    <tripinfo id="veh17" depart="63.00" departLane="330172468#0_0" departPos="5.10" departSpeed="12.87" departDelay="-0.15" arrival="174.00" arrivalLane="-684280772#0_0" arrivalPos="79.14" arrivalSpeed="12.01" duration="111.00" routeLength="1006.43" waitingTime="15.00" waitingCount="1" stopTime="0.00" timeLoss="35.21" rerouteNo="1" devices="tripinfo_veh17 routing_veh17" vType="veh_passenger" speedFactor="1.16" vaporized=""/>
    <tripinfo id="down_24" depart="85.00" departLane="315557586#0_0" departPos="5.10" departSpeed="0.00" departDelay="0.00" arrival="174.00" arrivalLane="33783509#2_0" arrivalPos="106.43" arrivalSpeed="11.44" duration="89.00" routeLength="785.70" waitingTime="4.00" waitingCount="1" stopTime="0.00" timeLoss="35.23" rerouteNo="0" devices="tripinfo_down_24" vType="Bus" speedFactor="1.03" vaporized=""/>
    <tripinfo id="veh22" depart="81.00" departLane="315218164#1_1" departPos="5.10" departSpeed="0.00" departDelay="-0.73" arrival="176.00" arrivalLane="24252105#2_0" arrivalPos="320.39" arrivalSpeed="8.89" duration="95.00" routeLength="668.16" waitingTime="14.00" waitingCount="1" stopTime="0.00" timeLoss="25.03" rerouteNo="1" devices="tripinfo_veh22 routing_veh22" vType="veh_passenger" speedFactor="0.83" vaporized=""/>
    <tripinfo id="veh29" depart="107.00" departLane="23843773#0_0" departPos="5.10" departSpeed="12.83" departDelay="-0.73" arrival="194.00" arrivalLane="-129822384#4_0" arrivalPos="43.86" arrivalSpeed="12.11" duration="87.00" routeLength="1100.05" waitingTime="0.00" waitingCount="0" stopTime="0.00" timeLoss="8.89" rerouteNo="1" devices="tripinfo_veh29 routing_veh29" vType="veh_passenger" speedFactor="1.15" vaporized=""/>
    <tripinfo id="right_5" depart="11.00" departLane="14342450_0" departPos="5.10" departSpeed="0.00" departDelay="0.00" arrival="236.00" arrivalLane="315218164#11_0" arrivalPos="42.74" arrivalSpeed="8.84" duration="225.00" routeLength="1038.95" waitingTime="121.00" waitingCount="2" stopTime="0.00" timeLoss="162.46" rerouteNo="0" devices="tripinfo_right_5" vType="Bus" speedFactor="1.12" vaporized=""/>
    <tripinfo id="veh41" depart="152.00" departLane="129822384#0_0" departPos="5.10" departSpeed="11.53" departDelay="-0.31" arrival="237.00" arrivalLane="330154009#10_0" arrivalPos="110.67" arrivalSpeed="11.22" duration="85.00" routeLength="708.79" waitingTime="10.00" waitingCount="1" stopTime="0.00" timeLoss="22.67" rerouteNo="1" devices="tripinfo_veh41 routing_veh41" vType="veh_passenger" speedFactor="1.04" vaporized=""/>
    <tripinfo id="right_9" depart="27.00" departLane="14342450_0" departPos="5.10" departSpeed="0.00" departDelay="2.00" arrival="237.00" arrivalLane="315218164#11_1" arrivalPos="42.74" arrivalSpeed="8.89" duration="210.00" routeLength="1038.95" waitingTime="101.00" waitingCount="2" stopTime="0.00" timeLoss="138.90" rerouteNo="0" devices="tripinfo_right_9" vType="Bus" speedFactor="0.88" vaporized=""/>
    <tripinfo id="right_7" depart="22.00" departLane="14342450_0" departPos="5.10" departSpeed="0.00" departDelay="0.00" arrival="239.00" arrivalLane="315218164#11_0" arrivalPos="42.74" arrivalSpeed="9.02" duration="217.00" routeLength="1038.95" waitingTime="112.00" waitingCount="2" stopTime="0.00" timeLoss="153.53" rerouteNo="0" devices="tripinfo_right_7" vType="Bus" speedFactor="0.99" vaporized=""/>
    <tripinfo id="right_12" depart="37.00" departLane="14342450_0" departPos="5.10" departSpeed="0.00" departDelay="3.00" arrival="239.00" arrivalLane="315218164#11_1" arrivalPos="42.74" arrivalSpeed="8.80" duration="202.00" routeLength="1038.95" waitingTime="91.00" waitingCount="2" stopTime="0.00" timeLoss="139.40" rerouteNo="0" devices="tripinfo_right_12" vType="Bus" speedFactor="1.04" vaporized=""/>
    <tripinfo id="veh21" depart="78.00" departLane="319802412_1" departPos="5.10" departSpeed="9.88" departDelay="-0.01" arrival="241.00" arrivalLane="24252817#1_0" arrivalPos="182.46" arrivalSpeed="14.65" duration="163.00" routeLength="553.24" waitingTime="104.00" waitingCount="2" stopTime="0.00" timeLoss="117.06" rerouteNo="1" devices="tripinfo_veh21 routing_veh21" vType="veh_passenger" speedFactor="0.89" vaporized=""/>
    <tripinfo id="right_10" depart="32.00" departLane="14342450_0" departPos="5.10" departSpeed="0.00" departDelay="1.00" arrival="241.00" arrivalLane="315218164#11_0" arrivalPos="42.74" arrivalSpeed="9.82" duration="209.00" routeLength="1038.95" waitingTime="99.00" waitingCount="2" stopTime="0.00" timeLoss="139.84" rerouteNo="0" devices="tripinfo_right_10" vType="Bus" speedFactor="0.91" vaporized=""/>
    <tripinfo id="right_15" depart="47.00" departLane="14342450_0" departPos="5.10" departSpeed="0.00" departDelay="3.00" arrival="241.00" arrivalLane="315218164#11_1" arrivalPos="42.74" arrivalSpeed="9.39" duration="194.00" routeLength="1038.95" waitingTime="84.00" waitingCount="2" stopTime="0.00" timeLoss="129.77" rerouteNo="0" devices="tripinfo_right_15" vType="Bus" speedFactor="0.97" vaporized=""/>
    <tripinfo id="right_13" depart="42.00" departLane="14342450_0" departPos="5.10" departSpeed="0.00" departDelay="2.00" arrival="243.00" arrivalLane="315218164#11_0" arrivalPos="42.74" arrivalSpeed="10.25" duration="201.00" routeLength="1038.95" waitingTime="88.00" waitingCount="2" stopTime="0.00" timeLoss="138.13" rerouteNo="0" devices="tripinfo_right_13" vType="Bus" speedFactor="1.02" vaporized=""/>
    <tripinfo id="right_18" depart="63.00" departLane="14342450_0" departPos="5.10" departSpeed="0.00" departDelay="0.00" arrival="243.00" arrivalLane="315218164#11_1" arrivalPos="42.74" arrivalSpeed="9.39" duration="180.00" routeLength="1038.95" waitingTime="67.00" waitingCount="1" stopTime="0.00" timeLoss="114.69" rerouteNo="0" devices="tripinfo_right_18" vType="Bus" speedFactor="0.96" vaporized=""/>
    <tripinfo id="right_17" depart="56.00" departLane="14342450_0" departPos="5.10" departSpeed="0.00" departDelay="0.00" arrival="245.00" arrivalLane="315218164#11_0" arrivalPos="42.74" arrivalSpeed="10.65" duration="189.00" routeLength="1038.95" waitingTime="76.00" waitingCount="2" stopTime="0.00" timeLoss="126.25" rerouteNo="0" devices="tripinfo_right_17" vType="Bus" speedFactor="1.06" vaporized=""/>
    <tripinfo id="right_23" depart="81.00" departLane="14342450_0" departPos="5.10" departSpeed="0.00" departDelay="0.00" arrival="245.00" arrivalLane="315218164#11_1" arrivalPos="42.74" arrivalSpeed="10.01" duration="164.00" routeLength="1038.95" waitingTime="67.00" waitingCount="1" stopTime="0.00" timeLoss="101.50" rerouteNo="0" devices="tripinfo_right_23" vType="Bus" speedFactor="1.09" vaporized=""/>
    <tripinfo id="veh34" depart="126.00" departLane="670322549#0_0" departPos="5.10" departSpeed="8.11" departDelay="-0.30" arrival="247.00" arrivalLane="315218164#11_1" arrivalPos="42.74" arrivalSpeed="14.28" duration="121.00" routeLength="642.37" waitingTime="43.00" waitingCount="1" stopTime="0.00" timeLoss="66.63" rerouteNo="1" devices="tripinfo_veh34 routing_veh34" vType="veh_passenger" speedFactor="0.97" vaporized=""/>
    <tripinfo id="right_19" depart="68.00" departLane="14342450_0" departPos="5.10" departSpeed="0.00" departDelay="4.00" arrival="247.00" arrivalLane="315218164#11_0" arrivalPos="42.74" arrivalSpeed="10.66" duration="179.00" routeLength="1038.95" waitingTime="69.00" waitingCount="1" stopTime="0.00" timeLoss="115.51" rerouteNo="0" devices="tripinfo_right_19" vType="Bus" speedFactor="0.98" vaporized=""/>
    <tripinfo id="left_20" depart="67.00" departLane="319655874#0_0" departPos="5.10" departSpeed="0.00" departDelay="0.00" arrival="256.00" arrivalLane="24252817#1_1" arrivalPos="182.46" arrivalSpeed="16.36" duration="189.00" routeLength="1044.44" waitingTime="83.00" waitingCount="2" stopTime="0.00" timeLoss="125.96" rerouteNo="0" devices="tripinfo_left_20" vType="Bus" speedFactor="1.03" vaporized=""/>
    <tripinfo id="left_14" depart="41.00" departLane="319655874#0_0" departPos="5.10" departSpeed="0.00" departDelay="0.00" arrival="258.00" arrivalLane="24252817#1_1" arrivalPos="182.46" arrivalSpeed="16.51" duration="217.00" routeLength="1044.44" waitingTime="107.00" waitingCount="3" stopTime="0.00" timeLoss="153.91" rerouteNo="0" devices="tripinfo_left_14" vType="Bus" speedFactor="1.02" vaporized=""/>
    <tripinfo id="up_27" depart="103.00" departLane="67701598#0_0" departPos="5.10" departSpeed="0.00" departDelay="0.00" arrival="263.00" arrivalLane="338413096_0" arrivalPos="307.50" arrivalSpeed="16.03" duration="160.00" routeLength="779.53" waitingTime="62.00" waitingCount="2" stopTime="0.00" timeLoss="103.94" rerouteNo="0" devices="tripinfo_up_27" vType="Bus" speedFactor="0.97" vaporized=""/>
    <tripinfo id="left_22" depart="74.00" departLane="319655874#0_0" departPos="5.10" departSpeed="0.00" departDelay="0.00" arrival="264.00" arrivalLane="24252817#1_1" arrivalPos="182.46" arrivalSpeed="16.28" duration="190.00" routeLength="1044.44" waitingTime="84.00" waitingCount="1" stopTime="0.00" timeLoss="127.14" rerouteNo="0" devices="tripinfo_left_22" vType="Bus" speedFactor="1.01" vaporized=""/>
    <tripinfo id="up_28" depart="108.00" departLane="67701598#0_0" departPos="5.10" departSpeed="0.00" departDelay="2.00" arrival="264.00" arrivalLane="338413096_1" arrivalPos="307.50" arrivalSpeed="16.32" duration="156.00" routeLength="779.53" waitingTime="60.00" waitingCount="2" stopTime="0.00" timeLoss="104.68" rerouteNo="0" devices="tripinfo_up_28" vType="Bus" speedFactor="1.15" vaporized=""/>
    <tripinfo id="up_39" depart="135.00" departLane="67701598#0_0" departPos="5.10" departSpeed="0.00" departDelay="0.00" arrival="264.00" arrivalLane="338413096_0" arrivalPos="307.50" arrivalSpeed="16.38" duration="129.00" routeLength="779.53" waitingTime="44.00" waitingCount="1" stopTime="0.00" timeLoss="76.51" rerouteNo="0" devices="tripinfo_up_39" vType="Bus" speedFactor="1.06" vaporized=""/>
    <tripinfo id="left_16" depart="49.00" departLane="319655874#0_0" departPos="5.10" departSpeed="0.00" departDelay="0.00" arrival="265.00" arrivalLane="24252817#1_0" arrivalPos="182.46" arrivalSpeed="15.51" duration="216.00" routeLength="1044.44" waitingTime="106.00" waitingCount="2" stopTime="0.00" timeLoss="148.46" rerouteNo="0" devices="tripinfo_left_16" vType="Bus" speedFactor="0.94" vaporized=""/>
    <tripinfo id="veh12" depart="44.00" departLane="-432966955_0" departPos="5.10" departSpeed="7.60" departDelay="-0.58" arrival="266.00" arrivalLane="19070397#1_0" arrivalPos="104.52" arrivalSpeed="7.25" duration="222.00" routeLength="795.39" waitingTime="120.00" waitingCount="5" stopTime="0.00" timeLoss="159.11" rerouteNo="1" devices="tripinfo_veh12 routing_veh12" vType="veh_passenger" speedFactor="0.99" vaporized=""/>
    <tripinfo id="right_25" depart="93.00" departLane="14342450_0" departPos="5.10" departSpeed="0.00" departDelay="1.00" arrival="270.00" arrivalLane="315218164#11_0" arrivalPos="42.74" arrivalSpeed="16.36" duration="177.00" routeLength="1038.95" waitingTime="84.00" waitingCount="1" stopTime="0.00" timeLoss="113.82" rerouteNo="0" devices="tripinfo_right_25" vType="Bus" speedFactor="1.00" vaporized=""/>
    <tripinfo id="veh3" depart="11.00" departLane="33783846#5_1" departPos="5.10" departSpeed="0.00" departDelay="-0.14" arrival="275.00" arrivalLane="19070397#1_0" arrivalPos="104.52" arrivalSpeed="6.34" duration="264.00" routeLength="938.55" waitingTime="138.00" waitingCount="4" stopTime="0.00" timeLoss="173.30" rerouteNo="1" devices="tripinfo_veh3 routing_veh3" vType="veh_passenger" speedFactor="0.83" vaporized=""/>
    <tripinfo id="veh20" depart="74.00" departLane="330154009#6_0" departPos="5.10" departSpeed="0.00" departDelay="-0.30" arrival="275.00" arrivalLane="24252809#0_1" arrivalPos="93.53" arrivalSpeed="7.88" duration="201.00" routeLength="1161.45" waitingTime="83.00" waitingCount="2" stopTime="0.00" timeLoss="115.41" rerouteNo="1" devices="tripinfo_veh20 routing_veh20" vType="veh_passenger" speedFactor="0.98" vaporized=""/>
    <tripinfo id="veh39" depart="144.00" departLane="684280772#0_0" departPos="5.10" departSpeed="0.00" departDelay="-0.88" arrival="275.00" arrivalLane="319655871#2_0" arrivalPos="100.81" arrivalSpeed="15.08" duration="131.00" routeLength="1021.48" waitingTime="20.00" waitingCount="1" stopTime="0.00" timeLoss="54.02" rerouteNo="1" devices="tripinfo_veh39 routing_veh39" vType="veh_passenger" speedFactor="0.96" vaporized=""/>
    <tripinfo id="veh33" depart="122.00" departLane="319802412_0" departPos="5.10" departSpeed="11.33" departDelay="-0.59" arrival="278.00" arrivalLane="24252819#2_0" arrivalPos="133.21" arrivalSpeed="11.19" duration="156.00" routeLength="908.91" waitingTime="65.00" waitingCount="2" stopTime="0.00" timeLoss="83.16" rerouteNo="1" devices="tripinfo_veh33 routing_veh33" vType="veh_passenger" speedFactor="1.02" vaporized=""/>
    <tripinfo id="veh15" depart="55.00" departLane="33783846#0_1" departPos="5.10" departSpeed="10.46" departDelay="-0.72" arrival="281.00" arrivalLane="330154009#1_0" arrivalPos="97.72" arrivalSpeed="10.03" duration="226.00" routeLength="1241.80" waitingTime="95.00" waitingCount="2" stopTime="0.00" timeLoss="130.55" rerouteNo="1" devices="tripinfo_veh15 routing_veh15" vType="veh_passenger" speedFactor="0.94" vaporized=""/>
    <tripinfo id="veh28" depart="104.00" departLane="33783846#0_1" departPos="5.10" departSpeed="13.09" departDelay="-0.01" arrival="281.00" arrivalLane="33783509#2_1" arrivalPos="106.43" arrivalSpeed="13.01" duration="177.00" routeLength="1281.78" waitingTime="53.00" waitingCount="2" stopTime="0.00" timeLoss="95.39" rerouteNo="1" devices="tripinfo_veh28 routing_veh28" vType="veh_passenger" speedFactor="1.18" vaporized=""/>
    <tripinfo id="veh37" depart="137.00" departLane="319655874#8_0" departPos="5.10" departSpeed="0.00" departDelay="-0.45" arrival="281.00" arrivalLane="338413096_0" arrivalPos="307.50" arrivalSpeed="14.34" duration="144.00" routeLength="757.80" waitingTime="76.00" waitingCount="1" stopTime="0.00" timeLoss="92.01" rerouteNo="1" devices="tripinfo_veh37 routing_veh37" vType="veh_passenger" speedFactor="0.90" vaporized=""/>
    <tripinfo id="veh13" depart="48.00" departLane="33783846#0_1" departPos="5.10" departSpeed="10.30" departDelay="-0.29" arrival="285.00" arrivalLane="319802403#5_0" arrivalPos="134.98" arrivalSpeed="9.75" duration="237.00" routeLength="1373.13" waitingTime="104.00" waitingCount="2" stopTime="0.00" timeLoss="123.84" rerouteNo="1" devices="tripinfo_veh13 routing_veh13" vType="veh_passenger" speedFactor="0.93" vaporized=""/>
    <tripinfo id="veh27" depart="100.00" departLane="319655874#0_0" departPos="5.10" departSpeed="15.52" departDelay="-0.30" arrival="285.00" arrivalLane="330154009#4_0" arrivalPos="59.95" arrivalSpeed="9.32" duration="185.00" routeLength="1066.17" waitingTime="81.00" waitingCount="1" stopTime="0.00" timeLoss="103.52" rerouteNo="1" devices="tripinfo_veh27 routing_veh27" vType="veh_passenger" speedFactor="0.93" vaporized=""/>
    <tripinfo id="veh40" depart="148.00" departLane="-432966955_0" departPos="5.10" departSpeed="7.60" departDelay="-0.59" arrival="287.00" arrivalLane="-684280772#1_0" arrivalPos="13.54" arrivalSpeed="10.90" duration="139.00" routeLength="716.53" waitingTime="60.00" waitingCount="1" stopTime="0.00" timeLoss="82.50" rerouteNo="1" devices="tripinfo_veh40 routing_veh40" vType="veh_passenger" speedFactor="1.09" vaporized=""/>
    <tripinfo id="veh47" depart="174.00" departLane="129822384#0_0" departPos="5.10" departSpeed="9.45" departDelay="-0.60" arrival="288.00" arrivalLane="315218164#11_1" arrivalPos="42.74" arrivalSpeed="13.89" duration="114.00" routeLength="758.15" waitingTime="21.00" waitingCount="1" stopTime="0.00" timeLoss="33.62" rerouteNo="1" devices="tripinfo_veh47 routing_veh47" vType="veh_passenger" speedFactor="0.85" vaporized=""/>
    <tripinfo id="veh8" depart="29.00" departLane="23843773#0_0" departPos="5.10" departSpeed="12.12" departDelay="-0.72" arrival="289.00" arrivalLane="319802403#5_0" arrivalPos="134.98" arrivalSpeed="11.25" duration="260.00" routeLength="1761.99" waitingTime="92.00" waitingCount="2" stopTime="0.00" timeLoss="132.51" rerouteNo="1" devices="tripinfo_veh8 routing_veh8" vType="veh_passenger" speedFactor="1.09" vaporized=""/>
    <tripinfo id="veh14" depart="52.00" departLane="319655874#0_1" departPos="5.10" departSpeed="14.64" departDelay="-0.01" arrival="292.00" arrivalLane="432966955_0" arrivalPos="15.80" arrivalSpeed="8.55" duration="240.00" routeLength="1323.84" waitingTime="113.00" waitingCount="3" stopTime="0.00" timeLoss="137.10" rerouteNo="1" devices="tripinfo_veh14 routing_veh14" vType="veh_passenger" speedFactor="0.88" vaporized=""/>
    <tripinfo id="veh16" depart="59.00" departLane="33783846#0_1" departPos="5.10" departSpeed="10.40" departDelay="-0.44" arrival="297.00" arrivalLane="319802403#5_0" arrivalPos="134.98" arrivalSpeed="9.69" duration="238.00" routeLength="1373.13" waitingTime="90.00" waitingCount="3" stopTime="0.00" timeLoss="127.09" rerouteNo="1" devices="tripinfo_veh16 routing_veh16" vType="veh_passenger" speedFactor="0.94" vaporized=""/>
    <tripinfo id="veh31" depart="115.00" departLane="23843773#0_0" departPos="5.10" departSpeed="13.02" departDelay="-0.16" arrival="302.00" arrivalLane="338413096_0" arrivalPos="307.50" arrivalSpeed="18.99" duration="187.00" routeLength="1488.20" waitingTime="43.00" waitingCount="3" stopTime="0.00" timeLoss="79.56" rerouteNo="1" devices="tripinfo_veh31 routing_veh31" vType="veh_passenger" speedFactor="1.17" vaporized=""/>
    <tripinfo id="veh35" depart="130.00" departLane="23843773#4_0" departPos="5.10" departSpeed="0.00" departDelay="-0.02" arrival="302.00" arrivalLane="24252105#2_0" arrivalPos="320.39" arrivalSpeed="12.16" duration="172.00" routeLength="1244.92" waitingTime="40.00" waitingCount="2" stopTime="0.00" timeLoss="90.51" rerouteNo="1" devices="tripinfo_veh35 routing_veh35" vType="veh_passenger" speedFactor="1.18" vaporized=""/>
    <tripinfo id="right_29" depart="115.00" departLane="14342450_0" departPos="5.10" departSpeed="0.00" departDelay="0.00" arrival="304.00" arrivalLane="315218164#11_0" arrivalPos="42.74" arrivalSpeed="8.75" duration="189.00" routeLength="1038.95" waitingTime="84.00" waitingCount="2" stopTime="0.00" timeLoss="124.79" rerouteNo="0" devices="tripinfo_right_29" vType="Bus" speedFactor="0.98" vaporized=""/>
    <tripinfo id="right_34" depart="126.00" departLane="14342450_0" departPos="5.10" departSpeed="0.00" departDelay="0.00" arrival="305.00" arrivalLane="315218164#11_1" arrivalPos="42.74" arrivalSpeed="8.30" duration="179.00" routeLength="1038.95" waitingTime="72.00" waitingCount="2" stopTime="0.00" timeLoss="116.28" rerouteNo="0" devices="tripinfo_right_34" vType="Bus" speedFactor="1.02" vaporized=""/>
    <tripinfo id="veh36" depart="133.00" departLane="319655874#1_0" departPos="4.67" departSpeed="0.00" departDelay="-0.73" arrival="306.00" arrivalLane="24252105#2_0" arrivalPos="320.39" arrivalSpeed="11.74" duration="173.00" routeLength="1138.84" waitingTime="61.00" waitingCount="2" stopTime="0.00" timeLoss="94.38" rerouteNo="1" devices="tripinfo_veh36 routing_veh36" vType="veh_passenger" speedFactor="1.10" vaporized=""/>
    <tripinfo id="right_35" depart="131.00" departLane="14342450_0" departPos="5.10" departSpeed="0.00" departDelay="4.00" arrival="306.00" arrivalLane="315218164#11_0" arrivalPos="42.74" arrivalSpeed="8.85" duration="175.00" routeLength="1038.95" waitingTime="66.00" waitingCount="2" stopTime="0.00" timeLoss="105.08" rerouteNo="0" devices="tripinfo_right_35" vType="Bus" speedFactor="0.89" vaporized=""/>
    <tripinfo id="right_38" depart="136.00" departLane="14342450_0" departPos="5.10" departSpeed="0.00" departDelay="4.00" arrival="307.00" arrivalLane="315218164#11_1" arrivalPos="42.74" arrivalSpeed="9.04" duration="171.00" routeLength="1038.95" waitingTime="62.00" waitingCount="2" stopTime="0.00" timeLoss="108.21" rerouteNo="0" devices="tripinfo_right_38" vType="Bus" speedFactor="1.09" vaporized=""/>